13
gdb 3306	6.20498	2.1207	1.91025	2.4854	57.25	-0.2605	0.0167	0.2772	670.6073	0.103509	-303.460433	-303.454586	-303.453642	-303.490149	21.647	
N	-0.0034927593	-1.2030002959	-0.0727788246	-0.325089
C	 0.0033287097	-0.0470933612	-0.0424604953	 0.272199
C	 0.0218707402	 1.4069882615	 0.0308987911	-0.165412
C	-0.1792528638	 2.1038105941	 1.4178271822	-0.174746
N	 1.1096149458	 2.8635132992	 1.2890682954	-0.11887
C	 2.1646381827	 1.8362376076	 1.2196305371	-0.237048
C	 1.3846625519	 2.1113891874	 0.0004677623	-0.031091
H	-0.6653545229	 1.8138277425	-0.7134884773	 0.136255
H	-1.0300125779	 2.7855521969	 1.4270257422	 0.130659
H	-0.2237704079	 1.4460318399	 2.2899070127	 0.129241
H	 3.1645497039	 2.2543530717	 1.2705218625	 0.134789
H	 2.0325537294	 0.8975988856	 1.7538337488	 0.134533
H	 1.799504228	 2.5944483807	-0.877137247	 0.11458
123.93	180.9234	322.614	447.7809	518.0253	577.1507	701.1372	765.9525	784.7477	844.3788	950.3622	979.3586	988.8204	1045.7743	1063.7567	1095.115	1117.0382	1126.2516	1197.2754	1210.7301	1236.0023	1295.3367	1341.5455	1370.7287	1492.2642	1509.8773	2352.7082	3068.7028	3095.1742	3109.9358	3137.2412	3176.5651	3207.8903
N#CC1CN2CC12	N#C[C@H]1CN2C[C@@H]12	
InChI=1S/C5H6N2/c6-1-4-2-7-3-5(4)7/h4-5H,2-3H2	InChI=1S/C5H6N2/c6-1-4-2-7-3-5(4)7/h4-5H,2-3H2/t4-,5-,7?/m0/s1
