13
gdb 4374	4.26969	1.87329	1.30273	2.1384	63.54	-0.2344	-0.0076	0.2268	860.4022	0.098893	-394.861157	-394.854718	-394.853774	-394.89148	25.046	
N	-0.0700518748	 1.364602984	 0.1854284238	-0.565792
C	 0.0272717068	 0.0075790146	 0.0629193721	 0.422419
N	-1.13984909	-0.6688079295	 0.046774731	-0.331774
C	-1.0428949062	-1.9888517715	-0.0299604804	 0.072652
N	 0.0661312187	-2.7250579989	-0.0977821785	-0.366912
C	 1.208363804	-2.0305090836	-0.0841609909	 0.452876
O	 2.3513357042	-2.7333248513	-0.1533087968	-0.4139
C	 1.2620908444	-0.6472886381	-0.0044394436	-0.305457
H	 0.7174943525	 1.9359713972	-0.0693400402	 0.258398
H	-0.985075842	 1.7523536578	 0.0203951501	 0.262585
H	-1.9819018301	-2.5385296134	-0.0423257583	 0.115304
H	 2.0859690537	-3.6628874824	-0.2003728848	 0.299929
H	 2.2080134788	-0.1212947248	 0.0089480866	 0.099673
187.2473	230.1156	338.1855	371.6304	455.3336	467.0372	500.9005	557.3342	569.8753	578.2217	722.0318	793.3501	845.6168	853.8963	986.209	1004.8694	1005.5004	1069.7779	1179.7018	1254.1154	1320.2372	1366.1886	1378.5287	1495.3999	1514.3764	1608.1669	1636.8207	1670.04	3155.2425	3208.6969	3600.1404	3724.1757	3760.1453
NC1=NC=NC(O)=C1	Nc1ncnc(O)c1	
InChI=1S/C4H5N3O/c5-3-1-4(8)7-2-6-3/h1-2H,(H3,5,6,7,8)	InChI=1S/C4H5N3O/c5-3-1-4(8)7-2-6-3/h1-2H,(H3,5,6,7,8)
