13
gdb 4422	3.92046	2.01168	1.32949	1.7429	64.83	-0.2128	-0.0263	0.1865	846.3707	0.099205	-394.841304	-394.83508	-394.834136	-394.8716	24.226	
O	-0.1107132516	 1.2976419599	 0.010505954	-0.400978
C	 0.0397562995	-0.0321207943	 0.0024882296	 0.526614
N	 1.2218384678	-0.5664710361	-0.007063888	-0.402083
C	 1.2293022151	-1.943848517	-0.0145248284	 0.00406
C	 0.1211410457	-2.7246398373	-0.0124691235	-0.194778
C	-1.1975724158	-2.120673282	-0.0017658918	 0.364562
N	-2.3691708614	-2.6372514987	 0.0020865402	-0.564252
N	-1.1240568644	-0.711526005	 0.0053980706	-0.35916
H	 0.7850318028	 1.6641212323	 0.0074189012	 0.316849
H	 2.2188007064	-2.3914515968	-0.0225237447	 0.116994
H	 0.1933271629	-3.8047943808	-0.0186909531	 0.100827
H	-2.3043200343	-3.6532535435	-0.0037419317	 0.215379
H	-2.0032349727	-0.2120073908	 0.0130647556	 0.275967
154.8223	213.7788	352.3764	417.1516	497.9423	537.7715	541.1869	585.1753	660.7238	718.3585	770.7977	777.6055	790.3158	844.6408	969.2864	1000.1136	1015.696	1082.1246	1152.1161	1206.1771	1306.2348	1343.5731	1349.4108	1442.2718	1555.1663	1605.1726	1656.8796	1724.6673	3174.0957	3214.9743	3507.0571	3603.9286	3774.3681
OC1=NC=CC(=N)N1	OC1=NCC=C([NH])N1	
InChI=1S/C4H5N3O/c5-3-1-2-6-4(8)7-3/h1-2H,(H3,5,6,7,8)	InChI=1S/C4H6N3O/c5-3-1-2-6-4(8)7-3/h1,5H,2H2,(H2,6,7,8)
