13
gdb 4199	4.5867	1.67208	1.6294	1.5774	61.7	-0.2382	-0.0151	0.2231	807.0742	0.0953	-398.487937	-398.481581	-398.480637	-398.518384	24.595	
O	-0.1005562821	 1.3627590659	 0.0364840428	-0.397923
N	 0.0499475777	-0.0428889283	 0.0355025829	-0.311089
C	-1.0638770458	-0.6221622681	 0.0670076174	 0.504817
C	-2.5850951661	-0.3838390782	-0.0100167716	-0.069197
O	-2.5926832095	-1.5433924407	-0.9142634185	-0.280562
C	-1.555049183	-2.071353404	-0.0173804035	-0.061683
C	-2.3207171605	-2.1695607103	 1.3120129926	-0.079173
C	-3.0154396819	-1.0252468575	 1.317153634	-0.074662
H	 0.8149165674	 1.6594826398	-0.0037212251	 0.30931
H	-3.058198029	 0.5143046817	-0.3955224718	 0.108473
H	-0.9773484292	-2.9042714056	-0.408977062	 0.103217
H	-2.2524480088	-2.9593078393	 2.044690519	 0.124224
H	-3.6809815492	-0.6048490755	 2.0557310738	 0.124248
130.8662	190.0008	308.3439	389.8315	435.5439	537.9868	585.4737	672.935	704.9273	761.9613	791.0635	862.2799	876.6268	893.4765	902.9412	917.5186	958.5655	1012.8309	1086.9544	1147.7806	1153.3187	1207.1027	1221.9601	1279.6209	1301.7522	1406.7783	1599.7024	1816.9065	3170.5743	3180.1574	3240.9437	3266.616	3818.6699
ON=C1C2OC1C=C2	ON=C1[C@H]2O[C@@H]1C=C2	
InChI=1S/C5H5NO2/c7-6-5-3-1-2-4(5)8-3/h1-4,7H	InChI=1S/C5H5NO2/c7-6-5-3-1-2-4(5)8-3/h1-4,7H/t3-,4+
