12
gdb 2007	6.45255	2.12477	2.1067	4.4634	55.54	-0.266	-0.0089	0.2571	638.5017	0.090627	-323.312375	-323.306806	-323.305861	-323.341661	21.035	
N	-0.0088278629	-1.0706055367	-0.0467622733	-0.338735
C	-0.0095718048	 0.0843634921	-0.0133377875	 0.181438
C	 0.0129236946	 1.5251390689	 0.0700108053	 0.324814
C	-0.6724144737	 2.4538374111	 1.1102268026	-0.245014
C	-0.0785200878	 3.3067330304	-0.0363793781	 0.033724
C	 1.2325035845	 2.4868408591	 0.0255981317	-0.245019
O	-0.6160521747	 2.3176367234	-1.0105322325	-0.32383
H	-1.7596341863	 2.387491609	 1.1277388556	 0.131269
H	-0.2206669505	 2.5256759729	 2.1014695003	 0.115958
H	-0.2260239753	 4.3599006449	-0.2633900786	 0.118171
H	 1.8524735053	 2.5615938293	 0.9210577295	 0.115957
H	 1.8037835617	 2.4492323157	-0.9012132249	 0.131267
176.6116	182.336	488.2319	510.7735	541.2976	552.2016	610.0929	736.647	800.2353	912.5373	924.5352	948.0226	982.7637	985.4658	1088.8977	1091.5246	1118.1304	1170.4889	1222.0302	1230.8122	1235.3592	1284.3135	1467.1126	1507.3451	2361.3151	3075.9731	3083.2016	3154.9022	3166.6633	3170.6913
N#CC12CC(C1)O2	N#C[C@@]12C[C@@H](C1)O2	
InChI=1S/C5H5NO/c6-3-5-1-4(2-5)7-5/h4H,1-2H2	InChI=1S/C5H5NO/c6-3-5-1-4(2-5)7-5/h4H,1-2H2/t4-,5+
