17
gdb 1963	7.52443	1.42914	1.27779	2.9522	64.9	-0.2392	-0.0162	0.223	946.2511	0.147052	-309.735489	-309.727948	-309.727004	-309.767494	27.467	
C	 0.0886213505	 1.4815345079	-0.1783667943	-0.380126
C	-0.0087195044	-0.0298617205	 0.0484833969	-0.191557
C	-1.4444165029	-0.5355684344	 0.1336951915	 0.04711
C	-2.2956394343	-0.5153177679	-1.1795373019	-0.354847
C	-2.67797546	-1.9761136996	-0.8933957436	 0.404423
O	-3.5054257477	-2.7184760584	-1.3356718066	-0.289761
C	-1.6531820447	-2.0800716622	 0.2469509987	-0.369086
H	 1.1312328428	 1.8074966784	-0.2416003158	 0.115974
H	-0.4093310958	 1.7770337801	-1.108287351	 0.119638
H	-0.3848041495	 2.0351038218	 0.6400629163	 0.116554
H	 0.507622763	-0.55993714	-0.7640338867	 0.093422
H	 0.5210356926	-0.2982765568	 0.9717001192	 0.100421
H	-1.974304883	-0.0166410618	 0.9391796639	 0.079137
H	-3.1251258573	 0.1919550658	-1.2570809835	 0.127506
H	-1.6838175663	-0.4312141567	-2.0859407784	 0.12699
H	-0.7702028478	-2.6555967375	-0.0558311752	 0.127074
H	-2.0236396852	-2.4880377883	 1.1909207305	 0.127127
55.0664	108.9797	190.9504	237.5137	355.6915	381.0001	424.191	491.4638	642.1116	668.3162	744.1444	786.8119	904.8052	916.6554	969.634	971.3678	995.5274	1073.5365	1083.7015	1134.1579	1144.7662	1192.8506	1220.2118	1238.5457	1265.052	1300.397	1343.2338	1388.2521	1412.8138	1427.7888	1448.1816	1485.8808	1498.8088	1506.5062	1893.2327	3009.068	3031.1893	3039.4229	3041.5472	3046.2984	3057.456	3097.7733	3104.9984	3108.401	3110.1872
CCC1CC(=O)C1	CCC1CC(=O)C1	
InChI=1S/C6H10O/c1-2-5-3-6(7)4-5/h5H,2-4H2,1H3	InChI=1S/C6H10O/c1-2-5-3-6(7)4-5/h5H,2-4H2,1H3
