11
gdb 71	10.13982	3.81346	2.86965	2.9514	39.33	-0.2699	-0.0262	0.2437	440.1727	0.088924	-268.301176	-268.295084	-268.29414	-268.331307	19.824	
C	-0.01708808	 1.4428113557	 0.0322550105	-0.478234
C	-0.0554454195	-0.0656057159	-0.0237599869	 0.362966
O	-0.1737991281	-0.7619623343	 0.9622312896	-0.307214
C	 0.0606810706	-0.7361517861	-1.388252517	-0.126028
O	 0.0087777131	-2.125743901	-1.2774948597	-0.418646
H	 0.9206294957	 1.8146391316	-0.3952221492	 0.148195
H	-0.8305052264	 1.8654228101	-0.5678035028	 0.148239
H	-0.109119755	 1.7804904522	 1.0649367484	 0.151978
H	-0.7501506723	-0.3523506008	-2.030560741	 0.112789
H	 1.0031289838	-0.4038902888	-1.8559294151	 0.112786
H	-0.0906325517	-2.2945096027	-0.3260801868	 0.293169
29.583	134.6788	285.5363	410.3658	411.8293	494.5774	620.857	804.9468	866.2456	968.0901	1100.005	1131.5122	1209.8461	1251.6821	1317.7079	1387.167	1452.503	1464.1488	1475.084	1494.8324	1801.8471	2966.9033	2981.0811	3041.2616	3101.9271	3155.8335	3673.1946
CC(=O)CO	CC(=O)CO	
InChI=1S/C3H6O2/c1-3(5)2-4/h4H,2H2,1H3	InChI=1S/C3H6O2/c1-3(5)2-4/h4H,2H2,1H3
