16
gdb 4822	4.45834	1.39132	1.12977	1.9194	68.84	-0.2135	0.0131	0.2266	1054.5722	0.130333	-383.772959	-383.76494	-383.763996	-383.805815	28.764	
C	 0.1851469281	 1.3768228385	-0.1412085456	-0.492118
C	-0.066133189	-0.0864451829	-0.0737690642	 0.349485
C	-1.1950584417	-0.8435096244	-0.0181470742	-0.254173
C	-0.7701376438	-2.212113161	 0.0246291882	-0.261546
C	 0.5879028948	-2.1967301955	-0.0004642295	 0.330023
C	 1.6460064683	-3.2432547138	-0.0037514885	-0.176407
O	 2.3558501022	-3.3274735309	-1.236407784	-0.412956
O	 1.0309648973	-0.9004360899	-0.0587349078	-0.223119
H	 0.7351113185	 1.6503959493	-1.0490901328	 0.137116
H	-0.7649717059	 1.9153633383	-0.143242168	 0.136832
H	 0.7746457667	 1.724840291	 0.7147891049	 0.138101
H	-2.2080469406	-0.4719233204	-0.0104438411	 0.106799
H	-1.3942526904	-3.0912919096	 0.0663815101	 0.110862
H	 2.3429492223	-3.0734607326	 0.8324110147	 0.10047
H	 1.1770669996	-4.218696542	 0.1496361156	 0.123489
H	 2.7077426236	-2.449773354	-1.4183787676	 0.287141
63.9333	121.1508	140.0066	218.016	264.242	311.6751	389.5746	427.9539	615.0582	637.596	672.2809	755.6073	801.5924	836.4127	930.9693	976.8268	1001.7191	1014.8682	1040.7184	1048.8452	1065.1314	1186.3308	1228.7532	1245.1915	1257.9119	1368.2767	1393.3929	1417.8175	1419.6062	1472.8841	1490.1599	1492.1932	1600.0153	1658.7266	2977.6047	3029.4944	3078.9168	3099.7124	3130.042	3248.9742	3262.3879	3817.0198
CC1=CC=C(CO)O1	Cc1ccc(CO)o1	
InChI=1S/C6H8O2/c1-5-2-3-6(4-7)8-5/h2-3,7H,4H2,1H3	InChI=1S/C6H8O2/c1-5-2-3-6(4-7)8-5/h2-3,7H,4H2,1H3
