13
gdb 2506	3.27325	2.28069	1.41652	4.2783	59.99	-0.2564	0.0002	0.2566	823.8423	0.100469	-303.453218	-303.445456	-303.444512	-303.48515	26.903	
C	 0.1258406507	 1.0884712897	-0.7183310437	-0.324763
N	-0.2626241044	 0.4037916212	 0.5132274636	-0.266939
C	-1.4783639771	-0.4002428138	 0.3732055078	-0.285533
C	-1.3845668387	-1.5242927108	-0.5769346302	 0.343269
C	-1.2531667	-2.4165535075	-1.3703345841	-0.450945
C	-1.889443768	-0.892568945	 1.7034894667	 0.301383
N	-2.2083616035	-1.2796160792	 2.7431925233	-0.313981
H	 1.0521578071	 1.6372985008	-0.5328496795	 0.13414
H	 0.2780447763	 0.4189905454	-1.5784137728	 0.120022
H	-0.647219067	 1.8176430207	-0.9846119357	 0.130782
H	 0.4908204387	-0.1967319283	 0.8328661908	 0.238482
H	-2.271161262	 0.2786999886	 0.0275782732	 0.16059
H	-1.1507711721	-3.2136299217	-2.0655415395	 0.213492
102.5438	131.8071	167.6772	184.7394	248.9438	345.1067	372.5137	512.2261	576.055	585.6001	655.1661	675.9344	750.1064	899.449	992.5354	1016.8404	1131.5539	1156.4172	1185.0012	1306.1862	1323.9353	1455.4026	1484.6885	1493.1362	1520.3645	2233.3611	2371.4131	2991.0545	3014.3316	3071.0246	3120.5746	3499.2737	3525.7898
CNC(C#C)C#N	CN[C@@H](C#C)C#N	
InChI=1S/C5H6N2/c1-3-5(4-6)7-2/h1,5,7H,2H3	InChI=1S/C5H6N2/c1-3-5(4-6)7-2/h1,5,7H,2H3/t5-/m0/s1
