17
gdb 3389	5.22352	1.89173	1.8208	1.8815	63.3	-0.2478	0.0749	0.3227	769.3657	0.14943	-309.678703	-309.671835	-309.670891	-309.709595	25.971	
O	 0.1202319423	 1.2851349128	-0.3205840776	-0.421984
C	 0.0691679256	-0.0337990414	 0.2101574573	-0.086377
C	-1.3193093141	-0.6234174079	 0.1215760597	-0.022407
C	-1.9120796132	-1.2321781539	-1.1288360618	-0.078528
C	-0.8792838816	-2.0570816971	-1.9126893051	-0.229846
C	-0.6374468939	-2.9353326751	-0.6428860546	-0.226206
C	-1.6644428516	-2.0876172133	 0.1227273887	-0.07555
H	-0.255027867	 1.2462016707	-1.2066675328	 0.28098
H	 0.8076401692	-0.6842209661	-0.279782704	 0.087913
H	 0.3718592574	 0.0587797621	 1.2589645719	 0.108245
H	-2.0516158172	-0.0290456552	 0.6652782768	 0.091631
H	-2.8555887675	-0.8809412342	-1.5301247182	 0.084504
H	-1.3296091066	-2.6286848079	-2.7267582034	 0.105517
H	-0.0183685452	-1.5128883434	-2.3155721636	 0.094053
H	-0.9802388833	-3.9616313778	-0.7911294887	 0.104321
H	 0.3782971627	-2.9702099543	-0.2374754775	 0.09933
H	-2.3890459762	-2.4852764182	 0.8237824529	 0.084405
75.7173	179.5832	241.0379	283.9807	324.6787	479.0912	517.5257	708.1514	766.5194	789.2536	798.6629	895.074	930.7267	957.3807	972.944	1012.9871	1019.9359	1036.4795	1059.0588	1078.276	1122.1826	1144.8233	1188.9453	1223.8463	1234.7829	1247.6559	1264.1027	1304.7233	1335.0425	1363.2634	1414.5396	1455.8968	1482.9881	1502.3111	1513.6885	3005.1687	3041.9807	3055.0129	3065.2254	3095.9919	3114.2557	3129.5148	3169.9392	3181.9636	3807.1061
OCC1C2CCC12	OC[C@H]1[C@H]2CC[C@@H]12	
InChI=1S/C6H10O/c7-3-6-4-1-2-5(4)6/h4-7H,1-3H2	InChI=1S/C6H10O/c7-3-6-4-1-2-5(4)6/h4-7H,1-3H2/t4-,5+,6-
