14
gdb 4622	5.71464	1.59351	1.25595	7.8031	67.68	-0.2288	-0.0273	0.2015	914.4672	0.109196	-378.774585	-378.767621	-378.766676	-378.806296	25.026	
C	-0.0296957712	 1.4900817197	 0.0100495109	-0.348982
N	-0.0083199722	 0.0342644449	 0.0009952237	-0.062424
C	-1.1814365222	-0.6898046305	 0.0041256113	 0.030353
C	-1.1552156246	-2.035712632	-0.0034179726	-0.251819
C	 0.1206205184	-2.7619415267	-0.0149089433	 0.37896
O	 0.1977649074	-3.9738850618	-0.0222135808	-0.362457
N	 1.2849403977	-1.9512687446	-0.017719619	-0.326983
C	 1.1662981628	-0.6736549569	-0.0099790776	 0.103915
H	 0.9963032018	 1.8604308002	 0.0028462359	 0.154032
H	-0.5462934467	 1.8775517119	-0.873591961	 0.151906
H	-0.5300592283	 1.8670094593	 0.9075199756	 0.151907
H	-2.0945015779	-0.1049005189	 0.012786341	 0.133112
H	-2.0736101702	-2.6085761334	-0.0011526539	 0.121378
H	 2.0606205651	-0.0491961011	-0.0120308501	 0.127101
66.701	103.0271	216.4729	339.8184	418.9688	463.1508	476.1618	520.3064	660.977	764.089	775.5077	825.44	855.5577	964.2448	978.8326	1010.9673	1062.0539	1151.8512	1160.7986	1204.8145	1250.9558	1394.6228	1433.6748	1447.9105	1477.0311	1482.8342	1519.2824	1597.2673	1705.0425	1779.065	3039.4079	3101.2973	3121.7734	3145.9216	3191.8055	3223.9684
CN1C=CC(=O)N=C1	Cn1ccc(=O)nc1	
InChI=1S/C5H6N2O/c1-7-3-2-5(8)6-4-7/h2-4H,1H3	InChI=1S/C5H6N2O/c1-7-3-2-5(8)6-4-7/h2-4H,1H3
