16
gdb 2997	7.10769	1.56651	1.4399	3.3812	63.13	-0.2445	0.0356	0.2801	884.3761	0.136938	-325.801512	-325.793735	-325.792791	-325.833888	27.203	
C	 0.0300166633	 1.4518973051	 0.0924825866	-0.332835
N	 0.0479163335	 0.0070615457	-0.0134714325	-0.329696
C	 0.3796033552	-0.6426270399	-1.1682112203	 0.441334
O	 0.6844256965	-0.056846778	-2.1964869195	-0.396591
C	 0.3420064429	-2.1364771633	-1.0819091891	-0.122014
C	-0.0784579347	-2.8842928803	-2.3332243762	-0.248377
C	 1.3562302196	-2.8961892463	-1.9161419696	-0.248411
H	 0.3174651833	 1.849553189	-0.8814664658	 0.172161
H	-0.968686	 1.8229624309	 0.3498452234	 0.123021
H	 0.7400551924	 1.8076814632	 0.8478776157	 0.123005
H	-0.1915104636	-0.5411295324	 0.795276239	 0.242852
H	 0.0605191921	-2.5688320266	-0.1267573524	 0.072933
H	-0.6712254503	-3.7821945323	-2.2014875205	 0.111686
H	-0.3429685857	-2.2649303498	-3.1819478393	 0.139599
H	 2.0434473614	-2.2840294857	-2.4879283837	 0.139642
H	 1.7727702242	-3.8024484791	-1.4917570156	 0.11169
65.233	88.3663	140.5806	203.4028	279.0706	325.3654	419.0622	463.72	657.2273	754.8738	791.6103	832.1507	856.0301	920.8704	932.4921	1064.5744	1074.5257	1094.9881	1106.2973	1121.1172	1154.7348	1172.5335	1209.1322	1221.4159	1239.1463	1406.2321	1438.7417	1450.1824	1485.105	1494.9664	1500.0387	1562.5803	1764.6264	3024.2191	3074.3537	3141.9639	3142.8878	3152.4872	3153.8878	3230.7105	3244.5094	3652.9734
CNC(=O)C1CC1	CNC(=O)C1CC1	
InChI=1S/C5H9NO/c1-6-5(7)4-2-3-4/h4H,2-3H2,1H3,(H,6,7)	InChI=1S/C5H9NO/c1-6-5(7)4-2-3-4/h4H,2-3H2,1H3,(H,6,7)
