10
gdb 1383	8.8021	1.51495	1.2925	5.8384	47.28	-0.2635	-0.1036	0.1599	820.9676	0.064558	-396.486463	-396.479459	-396.478515	-396.51828	22.54	
O	-0.3675189267	 0.0551525172	 0.0044064442	-0.233291
C	-0.0964281803	 1.2206538077	 0.0088818696	 0.170422
N	 1.1937787335	 1.7629075453	 0.000134736	-0.358572
C	 2.4070452074	 1.0722090605	-0.0145324996	 0.345212
O	 2.5419368347	-0.1189758385	-0.0229855041	-0.265365
C	 3.6127341804	 2.0419800566	-0.0210777436	 0.082962
O	 4.7402274082	 1.6465279919	-0.0343332981	-0.187629
H	-0.8521468584	 2.0310561014	 0.0192696943	 0.099122
H	 1.2413750906	 2.7725937394	 0.0050871909	 0.261977
H	 3.3668155906	 3.1308150285	-0.0128770195	 0.085162
61.3424	109.091	170.7269	223.8987	280.4803	385.9562	555.6397	612.4898	639.9586	799.7294	955.3575	990.6627	1028.1492	1061.5615	1156.4466	1420.967	1441.7208	1514.0513	1815.7117	1857.4362	1878.605	2842.9457	2938.9914	3595.8116
O=CNC(=O)C=O	O=CNC(=O)C=O	
InChI=1S/C3H3NO3/c5-1-3(7)4-2-6/h1-2H,(H,4,6,7)	InChI=1S/C3H3NO3/c5-1-3(7)4-2-6/h1-2H,(H,4,6,7)
