13
gdb 3583	4.86501	3.09929	2.58698	2.9896	51.91	-0.2391	0.0459	0.285	557.4682	0.101941	-344.359905	-344.354583	-344.353639	-344.388625	21.65	
O	 0.1132204134	 1.4194243142	-0.0575070296	-0.426504
C	-0.0593282446	 0.0490084333	 0.0340187768	 0.153216
C	-0.4323256091	-0.7671525917	 1.2469922635	-0.174621
C	-1.6163798509	-0.1721806516	 2.0574125269	 0.027873
O	-2.0217699299	 1.0917389968	 1.4826445417	-0.270996
C	-2.471241493	-0.1432263689	 0.8784658395	 0.027863
C	-1.34681678	-0.7362302446	-0.0141546849	-0.174617
H	-0.5991348658	 1.8079633052	 0.468563925	 0.2957
H	 0.7191840989	-0.4474245719	-0.5426793183	 0.112707
H	 0.1675717088	-1.5873688746	 1.6217283021	 0.096919
H	-1.8338317848	-0.3261418283	 3.1068418517	 0.11777
H	-3.5395394984	-0.2683727984	 0.7544901553	 0.11777
H	-1.5353662346	-1.5297886895	-0.7267362798	 0.096921
261.0953	292.8885	445.1014	539.8059	615.4041	669.6575	703.5585	716.4174	764.906	810.8011	861.6664	894.8401	933.1329	943.7632	986.2368	1005.1079	1033.5394	1052.5423	1094.2277	1185.3273	1235.5233	1237.615	1278.2883	1299.988	1335.4725	1419.0067	1482.3627	3133.0637	3181.3221	3191.0089	3194.2955	3208.81	3740.1046
OC1C2C3OC3C12	O[C@H]1[C@H]2[C@H]3O[C@H]3[C@@H]12	
InChI=1S/C5H6O2/c6-3-1-2(3)5-4(1)7-5/h1-6H	InChI=1S/C5H6O2/c6-3-1-2(3)5-4(1)7-5/h1-6H/t1-,2+,3-,4+,5-
