9
gdb 4217	6.47919	2.86448	1.98632	1.2187	44.68	-0.2928	-0.0676	0.2251	556.1854	0.057617	-379.572458	-379.567741	-379.566797	-379.601107	16.669	
F	 0.0009299837	 0.082381487	 0.0033066883	-0.036218
C	-0.0168490488	 1.3927691925	 0.0107212917	 0.374874
N	-1.2114503222	 1.9589892022	 0.0296741569	-0.291068
C	-1.1601448132	 3.2918249047	 0.0362071249	 0.094594
N	-0.0526873744	 4.0340057971	 0.0254586519	-0.239068
C	 1.0744971501	 3.3223115211	 0.0065661318	 0.094594
N	 1.1619464256	 1.991368873	-0.0017815261	-0.291068
H	-2.1121714714	 3.8164444003	 0.0517154935	 0.146681
H	 2.0119372806	 3.8727083321	-0.002929133	 0.146681
193.7686	376.5244	482.9839	574.3193	588.3093	705.5975	848.1411	910.013	995.008	1007.5456	1048.6665	1186.8405	1215.2352	1298.235	1385.5957	1421.1793	1489.0829	1601.6963	1607.5702	3175.5916	3178.8819
FC1=NC=NC=N1	Fc1ncncn1	
InChI=1S/C3H2FN3/c4-3-6-1-5-2-7-3/h1-2H	InChI=1S/C3H2FN3/c4-3-6-1-5-2-7-3/h1-2H
