14
gdb 465	6.1547	3.46524	2.63178	1.7344	54.16	-0.2491	0.0142	0.2633	528.2233	0.121083	-270.441145	-270.435384	-270.43444	-270.470414	21.367	
O	-0.093836338	 1.4651356746	-0.2323692856	-0.433101
C	 0.0472493738	 0.0739472847	 0.0655342673	 0.107543
C	-1.2968684538	-0.7047768483	 0.1243897755	-0.237358
C	-1.3630293977	-1.5618321457	-1.1662841898	-0.2548
C	 0.0488385497	-1.4978900526	-1.6976158218	-0.053811
C	 0.8180014214	-0.6519665236	-1.0127473919	-0.105077
H	-0.3724508423	 1.5309907194	-1.1526665681	 0.272272
H	 0.5561766875	 0.0649677517	 1.0347872567	 0.085648
H	-1.3056496527	-1.3559821983	 1.0033688115	 0.10529
H	-2.1313703132	-0.0072939339	 0.2284428709	 0.106642
H	-1.6782934188	-2.5911898023	-0.9603223982	 0.109049
H	-2.0784664271	-1.1729337322	-1.9035365613	 0.10633
H	 0.3714928068	-2.0812389801	-2.5540880106	 0.095802
H	 1.8573427345	-0.4251758635	-1.2226912746	 0.095571
81.8104	264.6304	335.3835	395.8797	503.4162	719.4843	730.5537	790.673	797.2185	877.0194	918.4644	976.7319	982.7459	994.5763	1060.399	1072.753	1131.8066	1165.078	1216.1018	1263.9034	1283.7336	1313.1324	1332.2074	1374.1925	1431.6782	1476.0057	1496.3109	1680.5623	3017.2643	3048.4839	3054.9426	3068.495	3111.3025	3178.363	3206.7215	3797.4153
OC1CCC=C1	O[C@H]1CCC=C1	
InChI=1S/C5H8O/c6-5-3-1-2-4-5/h1,3,5-6H,2,4H2	InChI=1S/C5H8O/c6-5-3-1-2-4-5/h1,3,5-6H,2,4H2/t5-/m1/s1
