11
gdb 348	8.88595	2.34892	1.87991	3.6839	51.	-0.2591	-0.0243	0.2349	627.8913	0.0833	-285.282532	-285.275639	-285.274695	-285.313335	22.928	
C	 0.0304566416	 1.4552654963	 0.0777626021	-0.338719
N	 0.1674722921	 0.015102771	-0.0105512171	-0.311925
C	 0.4124003554	-0.6267171983	-1.1889534279	 0.286647
O	 0.538419529	-0.0693705241	-2.2641729021	-0.355206
C	 0.512294335	-2.0752404002	-1.0427660603	 0.226679
C	 0.6003816798	-3.271198402	-0.9567094375	-0.411933
H	 0.7925795755	 1.8868332969	 0.7358880728	 0.13087
H	 0.1584555144	 1.8571951257	-0.9276466791	 0.175655
H	-0.9593024778	 1.7373979366	 0.453214035	 0.13087
H	 0.0809219195	-0.5455940474	 0.821214853	 0.256884
H	 0.6809420154	-4.3292028444	-0.896916729	 0.210178
72.5222	122.8745	158.2464	282.0744	311.1516	485.9405	541.5567	589.0647	659.3765	675.8771	764.2069	871.0758	1072.3529	1151.6028	1172.3255	1245.0188	1439.748	1490.2244	1498.5448	1557.7989	1762.9972	2226.6224	3029.6934	3082.6657	3156.9917	3496.5534	3647.5061
CNC(=O)C#C	CNC(=O)C#C	
InChI=1S/C4H5NO/c1-3-4(6)5-2/h1H,2H3,(H,5,6)	InChI=1S/C4H5NO/c1-3-4(6)5-2/h1H,2H3,(H,5,6)
