11
gdb 4210	5.86549	2.64196	1.82151	1.9081	54.15	-0.259	-0.0328	0.2262	619.2353	0.080595	-347.456674	-347.451683	-347.450738	-347.48542	18.976	
F	-0.0036921688	 0.0218250987	 0.0037274332	-0.076324
C	-0.0069336572	 1.3564469781	 0.0104690118	 0.253405
C	-1.2184345421	 2.0381737708	 0.0299796365	-0.098057
N	-1.2859351289	 3.3694185753	 0.0375627941	-0.245404
C	-0.1373725812	 4.051277057	 0.0257416789	 0.004168
C	 1.1161012226	 3.4439805733	 0.0060540602	-0.104591
C	 1.189545951	 2.0549807163	-0.0019017826	-0.205002
H	-2.1509976	 1.4799890703	 0.0395549102	 0.123443
H	-0.2229743167	 5.134531139	 0.0323225231	 0.113248
H	 2.0178478996	 4.0459280638	-0.002890102	 0.111629
H	 2.1328397116	 1.5212872176	-0.0171041234	 0.123484
241.9005	398.1296	427.0946	520.0569	541.2467	625.4151	730.2787	832.2726	839.9651	936.2997	963.7152	994.3051	1033.3406	1060.7879	1124.1481	1219.7642	1280.5847	1299.6892	1341.6354	1463.1753	1511.9533	1624.1259	1631.3976	3164.1768	3168.299	3193.7894	3209.4086
FC1=CN=CC=C1	Fc1cnccc1	
InChI=1S/C5H4FN/c6-5-2-1-3-7-4-5/h1-4H	InChI=1S/C5H4FN/c6-5-2-1-3-7-4-5/h1-4H
