16
gdb 1245	7.00683	1.14697	1.04479	4.0705	61.71	-0.284	0.0397	0.3237	1088.6368	0.135535	-325.799404	-325.791167	-325.790223	-325.832138	28.936	
C	 0.0200466251	 1.5567250892	 0.067734759	-0.411006
C	-0.0068581156	 0.0301954236	 0.0256898952	 0.132421
O	 0.691316836	-0.537315699	 1.1321591261	-0.42654
C	-1.4370765991	-0.5201907718	-0.0664633491	-0.191352
C	-1.4474250346	-2.0593330406	-0.1287504769	-0.336713
C	-2.7968108262	-2.6159520083	-0.1088689753	 0.253377
N	-3.8723701119	-3.0385837443	-0.0904066907	-0.308094
H	 1.0500281649	 1.914469402	 0.1444943547	 0.131271
H	-0.4326180604	 1.987448154	-0.8308173869	 0.124093
H	-0.53986301	 1.9313647499	 0.9340035729	 0.11265
H	 0.5573801861	-0.3131251281	-0.851259642	 0.094263
H	 0.3275437265	-0.152550533	 1.9379237794	 0.281117
H	-2.0118257824	-0.187336735	 0.8072689201	 0.110814
H	-1.9387146807	-0.1074699789	-0.9483976179	 0.119677
H	-0.9399115408	-2.4056494949	-1.0369019816	 0.149218
H	-0.8788211271	-2.4561093148	 0.7180284132	 0.164803
68.072	119.2836	131.9264	240.7076	251.8034	320.3207	347.7027	396.4501	459.9301	479.7404	553.9512	770.8477	849.3692	932.327	946.282	963.3989	1035.8365	1077.2242	1104.2662	1152.5402	1187.87	1268.669	1291.1026	1338.6944	1354.611	1390.7405	1406.7209	1421.6907	1470.0681	1484.9842	1494.5788	1495.987	2361.5719	3023.5114	3025.3008	3036.203	3048.4583	3076.0922	3096.1392	3101.023	3123.477	3793.3242
CC(O)CCC#N	C[C@@H](O)CCC#N	
InChI=1S/C5H9NO/c1-5(7)3-2-4-6/h5,7H,2-3H2,1H3	InChI=1S/C5H9NO/c1-5(7)3-2-4-6/h5,7H,2-3H2,1H3/t5-/m1/s1
