11
gdb 2958	3.95371	2.51593	1.71178	2.5384	53.87	-0.2701	-0.0702	0.1999	694.4152	0.076125	-343.19939	-343.19264	-343.191695	-343.230417	23.321	
O	 0.8612246626	 1.0705805474	-1.9737764036	-0.282274
C	 0.2532359561	 1.5416518698	-1.0373591796	 0.235571
C	 0.8441237118	 1.6853049824	 0.281509526	 0.275584
C	 1.3583730828	 1.7799095188	 1.3653758707	-0.434917
C	-1.1689721516	 2.00026173	-1.1880496208	-0.011322
C	-2.1729725103	 1.6978434794	-0.1459415042	-0.185638
O	-1.6374058799	 3.0030261414	-0.2888285578	-0.212423
H	 1.8184964039	 1.8684328561	 2.3197921026	 0.220473
H	-1.4861474406	 2.0933877885	-2.2247088895	 0.125592
H	-3.2100704534	 1.5716577328	-0.4517938065	 0.134362
H	-1.8677323314	 1.1632669133	 0.7513130528	 0.134992
83.8149	135.483	210.9048	283.7671	312.4012	461.9914	644.381	661.8705	698.8213	714.314	753.603	881.5244	902.3113	965.9979	1089.8499	1154.926	1163.9139	1231.6639	1263.5308	1385.2501	1514.3388	1765.3441	2215.0342	3092.7933	3146.1256	3188.2657	3492.601
O=C(C#C)C1CO1	O=C(C#C)[C@H]1CO1	
InChI=1S/C5H4O2/c1-2-4(6)5-3-7-5/h1,5H,3H2	InChI=1S/C5H4O2/c1-2-4(6)5-3-7-5/h1,5H,3H2/t5-/m1/s1
