15
gdb 1323	5.07043	1.87702	1.67008	4.9807	62.44	-0.2708	0.0174	0.2882	784.5465	0.124443	-304.696023	-304.688535	-304.687591	-304.727176	27.186	
C	-0.0823103344	 1.537060411	-0.0207223318	-0.43817
C	-0.023162995	 0.0255504487	 0.0228576493	 0.321694
C	-1.2359995895	-0.6892141952	-0.537598674	-0.458111
N	 1.3056927489	-0.5454487926	-0.2237483391	-0.338228
C	 0.7217276377	-0.6649207573	 1.1321906679	-0.235316
C	 1.37845414	 0.0605502799	 2.1921581979	 0.332654
N	 1.8747909833	 0.6400060524	 3.0610496691	-0.338797
H	 0.8290558741	 1.9776000108	 0.386899696	 0.151964
H	-0.1942892648	 1.8770918685	-1.0556563789	 0.1246
H	-0.9373746723	 1.9080789573	 0.5535855361	 0.126107
H	-1.3600308723	-0.4489679015	-1.5994298389	 0.133235
H	-1.1441327244	-1.7761324684	-0.44328079	 0.117309
H	-2.1492909765	-0.380168307	-0.0190711462	 0.136492
H	 1.235554204	-1.4464358647	-0.6921250858	 0.238747
H	 0.3420759213	-1.6342680419	 1.4446088985	 0.125819
139.7349	152.282	188.7131	231.1991	332.6009	351.8859	397.2374	405.3804	553.4116	583.4067	713.9515	804.9107	900.6181	943.5197	964.9919	975.7701	1027.3903	1073.8299	1107.513	1152.4194	1212.0155	1300.5268	1349.8567	1415.3649	1427.1951	1432.9279	1475.5801	1487.4959	1496.319	1509.6811	2357.6323	3029.5108	3041.8132	3097.5097	3103.967	3106.2198	3141.1099	3145.4769	3493.0758
CC1(C)NC1C#N	CC1(C)N[C@H]1C#N	
InChI=1S/C5H8N2/c1-5(2)4(3-6)7-5/h4,7H,1-2H3	InChI=1S/C5H8N2/c1-5(2)4(3-6)7-5/h4,7H,1-2H3/t4-/m0/s1
