16
gdb 959	3.52096	3.19779	1.71141	1.7538	67.73	-0.1892	0.0522	0.2415	743.04	0.137298	-288.69006	-288.682557	-288.681613	-288.722085	26.923	
C	-0.1004561224	 1.5096550259	 0.1112388102	-0.507255
C	-0.0112563726	 0.0251819424	-0.0320603703	 0.215617
C	 0.0208817309	-0.793186158	-1.1455649919	 0.21365
C	-0.0287387293	-0.3726669526	-2.5846836269	-0.506644
C	 0.1112179578	-2.1397311081	-0.6738900981	-0.225153
C	 0.1314262335	-2.1061412081	 0.6972683207	-0.090114
N	 0.0566139566	-0.7899517667	 1.0777718542	-0.285649
H	 0.767248417	 1.9281342485	 0.6376193885	 0.122939
H	-0.1446507858	 1.9862824355	-0.8701871568	 0.136124
H	-0.9966799573	 1.8195659847	 0.6642809748	 0.123012
H	 0.8628500883	-0.6994212488	-3.1333373134	 0.121499
H	-0.8952330095	-0.8011285794	-3.1027581089	 0.121508
H	-0.0934600815	 0.7140472706	-2.6903485256	 0.113787
H	 0.1558525654	-3.0280088299	-1.2865890842	 0.083732
H	 0.1918645099	-2.8954996235	 1.4292301018	 0.110558
H	 0.053060609	-0.4618582926	 2.0275012359	 0.252389
42.7309	96.0657	214.4922	274.3609	275.4173	391.5711	443.928	622.6061	634.1013	656.2269	705.2628	708.3366	818.8042	915.5252	971.8077	985.3507	1054.7918	1065.201	1085.8638	1124.2738	1188.8729	1264.3193	1296.8792	1406.0917	1423.5128	1435.616	1478.9302	1479.9307	1484.6175	1494.8314	1501.3886	1524.4821	1638.7424	3011.2399	3021.5131	3052.2062	3065.7832	3102.7916	3124.3147	3237.2559	3266.6622	3680.2064
CC1=C(C)C=CN1	Cc1c(C)cc[nH]1	
InChI=1S/C6H9N/c1-5-3-4-7-6(5)2/h3-4,7H,1-2H3	InChI=1S/C6H9N/c1-5-3-4-7-6(5)2/h3-4,7H,1-2H3
