13
gdb 2882	6.15657	2.09059	1.79716	1.7258	60.86	-0.2464	0.0069	0.2533	704.6804	0.101245	-307.275809	-307.269393	-307.268449	-307.306294	23.432	
C	 0.0402953247	-1.1623010503	 0.2131558795	-0.47517
C	 0.0092057183	 0.0296805248	 0.0640776777	 0.339503
C	-0.0178872034	 1.4835990167	-0.1400562735	-0.086469
O	-0.7336554095	 2.1521942211	 0.9045866428	-0.260539
C	 0.1447124829	 3.0055953756	 1.6365831009	-0.113289
C	 1.4505788842	 2.9559940548	 0.8963998551	-0.091682
C	 1.365184008	 2.1014411014	-0.1136483097	-0.081206
H	 0.0620684771	-2.2149584127	 0.3522448478	 0.200007
H	-0.533901017	 1.6883416613	-1.0912176715	 0.113894
H	-0.2865927263	 4.016611716	 1.6729341039	 0.111957
H	 0.2445928996	 2.6546484242	 2.676137472	 0.111836
H	 2.3169944722	 3.53826099	 1.1828799626	 0.112351
H	 2.1351158991	 1.8270291671	-0.8215623576	 0.118808
76.0307	160.818	232.3968	374.2594	513.1368	523.1036	618.0661	667.952	708.6712	770.1377	817.2128	895.2138	933.901	957.4288	967.7443	1031.2923	1047.5005	1101.8559	1126.1445	1197.1606	1282.0902	1341.1023	1348.4457	1380.5672	1518.5075	1693.5592	2233.5152	2976.2495	2978.6988	3008.8412	3214.2538	3242.259	3503.2809
C#CC1OCC=C1	C#C[C@H]1OCC=C1	
InChI=1S/C6H6O/c1-2-6-4-3-5-7-6/h1,3-4,6H,5H2	InChI=1S/C6H6O/c1-2-6-4-3-5-7-6/h1,3-4,6H,5H2/t6-/m1/s1
