19
gdb 1147	3.51238	2.46136	1.81731	1.7675	67.71	-0.2522	0.0838	0.3359	802.5634	0.167838	-310.922181	-310.913076	-310.912132	-310.95539	32.657	
C	-0.0489593974	 1.5207369968	-0.0615789627	-0.454513
C	-0.0584402088	 0.0085357442	 0.0739071546	 0.344778
C	-1.2217203749	-0.6254891064	-0.6677471848	-0.454495
O	 1.2163472676	-0.6358171477	-0.11039429	-0.333802
C	 0.6226170727	-0.6821259	 1.2009372404	 0.344757
C	 1.3655730196	 0.0860919543	 2.2793671315	-0.45446
C	 0.1927587892	-2.0598418906	 1.6725509937	-0.454484
H	 0.8330168491	 1.9761776499	 0.3870517862	 0.125789
H	-0.0622292071	 1.7953852966	-1.1221770994	 0.122536
H	-0.9410184524	 1.9558048871	 0.4027902755	 0.117272
H	-1.2095865827	-0.3042637149	-1.7151902776	 0.122528
H	-1.1835339993	-1.7140421141	-0.6550307248	 0.125738
H	-2.1761828313	-0.3046430197	-0.2355929899	 0.11728
H	 1.7562756766	 1.0381818395	 1.9223873278	 0.125659
H	 0.71156809	 0.2769847162	 3.13757899	 0.117257
H	 2.2134995763	-0.5085771149	 2.6369589887	 0.122599
H	 1.0635370545	-2.6088615361	 2.0477836579	 0.122501
H	-0.5260712352	-1.9795205516	 2.4956678889	 0.117273
H	-0.2553968966	-2.6540538185	 0.8771612439	 0.125786
58.2281	117.2483	160.5689	161.4732	170.3275	297.9498	330.7194	373.0506	399.365	444.8268	491.5397	495.3046	663.7402	697.9859	872.3131	905.5526	931.1101	945.2012	997.6975	1005.7864	1041.0251	1115.3348	1177.1473	1194.9453	1210.5075	1249.5061	1401.6614	1407.5862	1411.0211	1426.841	1437.4173	1466.3559	1474.6425	1478.2229	1485.0795	1493.4035	1500.5568	1516.5198	1532.5615	3033.2342	3035.3885	3038.3237	3043.1077	3088.7936	3089.7908	3095.1498	3096.2601	3143.9687	3145.7772	3160.8325	3161.5565
CC1(C)OC1(C)C	CC1(C)OC1(C)C	
InChI=1S/C6H12O/c1-5(2)6(3,4)7-5/h1-4H3	InChI=1S/C6H12O/c1-5(2)6(3,4)7-5/h1-4H3
