21
gdb 1572	4.31202	1.36327	1.10639	1.0487	71.86	-0.2476	0.0865	0.3341	1146.0763	0.192496	-312.12312	-312.113577	-312.112633	-312.157458	33.356	
C	-0.0166985696	 1.598613773	-0.0308176682	-0.38109
C	 0.0054844555	 0.0692436757	 0.0278801776	-0.166884
C	-1.3954599984	-0.5501195256	 0.0134045117	-0.167411
C	-1.3933691411	-2.0796363722	 0.0277754719	 0.141383
C	-2.8089766473	-2.6552296548	 0.1305129832	-0.402829
O	-0.7403612938	-2.5000684635	-1.1668689903	-0.242931
C	-0.2636716021	-3.8234440997	-1.1503417052	-0.232824
H	 0.9962991759	 2.013251709	-0.0187698609	 0.109215
H	-0.5090362383	 1.9522913731	-0.9437042479	 0.113531
H	-0.559760118	 2.0240509496	 0.8210565652	 0.109088
H	 0.572620098	-0.3308189646	-0.8186150832	 0.112901
H	 0.5340182713	-0.2551023988	 0.9347323328	 0.086161
H	-1.9700797059	-0.1945423171	 0.8783215349	 0.087699
H	-1.9380252943	-0.2177889219	-0.8817727772	 0.099107
H	-0.8022818651	-2.4266938267	 0.8943259385	 0.057512
H	-3.4150412197	-2.3235240058	-0.7187191607	 0.12164
H	-2.8028519844	-3.7490018455	 0.1396812588	 0.113349
H	-3.292688013	-2.3198672615	 1.0535036641	 0.113162
H	 0.290595054	-3.9779338374	-2.079978878	 0.124373
H	 0.4155331199	-4.0015439467	-0.3012491105	 0.100959
H	-1.0718035436	-4.5683335186	-1.1030962166	 0.103889
75.6855	76.0787	108.6629	161.5608	202.0933	234.6515	249.5276	286.7801	339.3561	372.0927	478.5224	532.3478	742.906	813.3137	870.7756	890.5751	945.7134	998.6039	1039.4732	1064.4826	1119.0878	1141.1417	1151.7497	1179.5341	1190.3805	1227.9711	1275.8488	1296.919	1329.3319	1365.7324	1383.7182	1399.9819	1405.1267	1413.9633	1471.0977	1477.9205	1482.4368	1493.8752	1494.1752	1500.6088	1502.4793	1510.3588	1513.6279	2940.2396	2972.7594	3013.5873	3019.4893	3020.4845	3027.0213	3038.4584	3054.4034	3075.0436	3097.7527	3099.3816	3105.8188	3108.7523	3112.5347
CCCC(C)OC	CCC[C@@H](C)OC	
InChI=1S/C6H14O/c1-4-5-6(2)7-3/h6H,4-5H2,1-3H3	InChI=1S/C6H14O/c1-4-5-6(2)7-3/h6H,4-5H2,1-3H3/t6-/m1/s1
