13
gdb 554	9.7226	2.37649	2.09674	4.1766	54.24	-0.3085	0.0282	0.3367	599.6434	0.109648	-249.362379	-249.35669	-249.355746	-249.391553	20.406	
N	-0.560743938	-0.9869261949	-0.6534907344	-0.326518
C	-0.2907699108	 0.0900391093	-0.3295059614	 0.261446
C	 0.0677336668	 1.4309985351	 0.0979907573	-0.119989
C	-0.0494062376	 1.7891934347	 1.6147178141	-0.218287
C	 1.2710658497	 2.5934830878	 1.4810586416	-0.215676
C	 1.5814586158	 1.8116917245	 0.176884178	-0.218279
H	-0.4789514449	 2.1569799496	-0.5107358418	 0.123621
H	-0.9524262549	 2.3175722965	 1.9245479322	 0.116273
H	 0.0735763584	 0.8996669339	 2.236356873	 0.127974
H	 1.0840088678	 3.6528601758	 1.2854642638	 0.112661
H	 1.9912251434	 2.5119534875	 2.296623276	 0.112513
H	 2.1965681029	 0.9289635594	 0.3646529493	 0.127982
H	 1.9937050315	 2.3582315208	-0.6728055078	 0.11628
126.0642	182.7011	263.6287	530.918	545.0695	591.4698	749.825	787.2808	896.7082	937.5679	948.3458	959.3152	1029.2861	1074.3317	1126.331	1209.1128	1237.801	1244.3403	1259.5292	1281.3983	1282.1573	1355.3676	1479.1078	1487.6932	1508.3057	2352.0197	3067.4951	3070.2543	3075.1798	3079.1447	3118.1242	3132.8032	3141.2837
N#CC1CCC1	N#CC1CCC1	
InChI=1S/C5H7N/c6-4-5-2-1-3-5/h5H,1-3H2	InChI=1S/C5H7N/c6-4-5-2-1-3-5/h5H,1-3H2
