14
gdb 1646	5.21252	1.82494	1.37423	1.165	54.38	-0.2399	-0.0611	0.1788	850.4674	0.111761	-361.77204	-361.764019	-361.763075	-361.804796	27.651	
C	 0.0317279038	 1.5315549147	 0.0092955354	-0.387066
C	-0.0530274844	 0.0085313307	 0.0027907002	-0.272393
C	-1.4667984825	-0.5146958472	 0.0133803287	 0.297708
O	-2.4557226056	 0.1846382698	 0.0266539278	-0.310494
C	-1.6101860844	-2.0574871367	 0.0063563732	 0.3241
N	-2.9033167485	-2.447956347	 0.0162153577	-0.516745
O	-0.6394930105	-2.7904322651	-0.0065433178	-0.349928
H	 1.0750075292	 1.8576690296	 0.0014031245	 0.116228
H	-0.4690996537	 1.9568099835	-0.8646241758	 0.130364
H	-0.4531807271	 1.9484004844	 0.896143309	 0.130391
H	 0.4504136259	-0.4326754701	-0.8672702995	 0.145179
H	 0.4662079296	-0.4407977257	 0.8593365973	 0.145182
H	-3.6221539903	-1.7424771416	 0.026778335	 0.278683
H	-3.1350757915	-3.4264522093	 0.0132760141	 0.268791
56.304	71.7926	187.5707	198.1818	311.5435	311.601	376.0805	415.9978	518.1695	610.6164	626.7631	701.8564	746.9816	827.4206	988.417	1040.355	1080.6257	1097.1858	1130.4672	1256.606	1344.1476	1392.1349	1416.9703	1431.1335	1495.685	1499.0085	1587.0455	1795.3246	1808.9847	3038.5229	3051.1871	3059.2459	3122.9854	3124.4977	3597.0493	3739.0338
CCC(=O)C(N)=O	CCC(=O)C(=O)N	
InChI=1S/C4H7NO2/c1-2-3(6)4(5)7/h2H2,1H3,(H2,5,7)	InChI=1S/C4H7NO2/c1-2-3(6)4(5)7/h2H2,1H3,(H2,5,7)
