11
gdb 446	7.91279	3.67077	2.62431	1.8361	43.66	-0.272	0.0187	0.2907	475.1154	0.08643	-322.434119	-322.429025	-322.428081	-322.462711	17.785	
N	-0.0531772596	 1.2706232972	 0.0388334352	-0.529426
C	-0.0171308506	 0.0151468354	-0.0408230793	 0.38917
C	-1.2089340722	-0.9174821443	-0.1161297618	-0.167392
O	-0.643200826	-2.155801341	-0.5226604258	-0.235938
C	 0.6819278076	-2.1345579572	-0.0699225559	 0.023637
O	 1.1016381773	-0.7686833136	-0.0765916902	-0.229311
H	 0.8874860224	 1.6629784841	 0.0964887048	 0.230074
H	-1.6975714224	-0.9935424359	 0.8670845228	 0.127844
H	-1.94378343	-0.5935752363	-0.8541184048	 0.152058
H	 0.7729759102	-2.5236686707	 0.9573853739	 0.105606
H	 1.3106939832	-2.7085410177	-0.7551211289	 0.133678
144.2978	210.9187	437.1195	523.7841	669.6793	751.6355	866.5494	890.9804	980.0959	1002.297	1028.0172	1065.6152	1130.2299	1182.1068	1202.9434	1237.4334	1295.9826	1348.6662	1442.6932	1498.7158	1544.4544	1801.8471	2973.3939	2999.4355	3100.5172	3126.4105	3482.6824
N=C1COCO1	[NH][C]1COCO1	
InChI=1S/C3H5NO2/c4-3-1-5-2-6-3/h4H,1-2H2	InChI=1S/C3H5NO2/c4-3-1-5-2-6-3/h4H,1-2H2
