19
gdb 3096	3.5457	1.95994	1.6049	1.293	67.68	-0.2528	0.0758	0.3286	869.0372	0.170521	-310.902165	-310.893498	-310.892554	-310.935068	31.082	
C	-0.2422112321	 1.0100562881	-1.760654244	-0.402157
C	-0.0070143502	-0.1930676461	-0.8715496256	-0.008011
C	 1.3619811012	-0.6043326198	-0.3680342833	-0.035951
C	 2.6388112917	 0.1295457462	-0.7266094678	-0.406275
C	 0.3249620497	-0.0675819185	 0.6015274844	-0.012087
C	 0.4501375078	 1.2705057639	 1.2806451415	-0.097342
O	-0.8668854787	 1.7474806609	 1.5442311596	-0.422187
H	 0.4519196076	 1.8295702139	-1.5599705848	 0.11057
H	-0.1304864128	 0.7410044798	-2.8169350534	 0.109927
H	-1.2544464203	 1.4009134598	-1.6157311181	 0.127796
H	-0.6692737645	-1.0224055024	-1.1086436991	 0.079148
H	 1.5122415573	-1.6793555661	-0.2986820537	 0.080015
H	 2.4983081675	 1.2073997609	-0.8337313521	 0.115648
H	 3.4088685576	-0.0262159788	 0.0374862505	 0.115061
H	 3.0399687361	-0.2404738951	-1.6769175849	 0.116312
H	-0.1412714671	-0.8069792958	 1.247734321	 0.083491
H	 1.0188120603	 1.1541497379	 2.2176188336	 0.083857
H	 1.0053588653	 1.9849791541	 0.6571250959	 0.079765
H	-0.7913146965	 2.5629482272	 2.0490539404	 0.282419
65.865	127.6156	160.6881	194.6013	220.9795	263.6612	297.0362	313.1668	464.236	502.0509	561.1292	746.2258	776.629	838.1709	926.7505	956.2314	1015.0437	1026.0387	1049.5894	1066.9765	1105.3917	1137.3524	1160.6404	1174.7117	1189.2995	1248.1335	1259.5283	1287.7972	1375.4543	1379.9857	1417.3482	1422.9127	1449.2813	1471.4692	1489.3739	1493.0408	1504.1664	1512.8852	1526.0377	2967.8214	3010.8776	3031.4204	3036.8407	3083.8451	3094.4266	3107.9033	3117.3917	3126.4307	3130.0779	3144.764	3820.6363
CC1C(C)C1CO	C[C@H]1[C@@H](C)[C@H]1CO	
InChI=1S/C6H12O/c1-4-5(2)6(4)3-7/h4-7H,3H2,1-2H3	InChI=1S/C6H12O/c1-4-5(2)6(4)3-7/h4-7H,3H2,1-2H3/t4-,5+,6-
