16
gdb 3092	3.63289	2.33312	1.83578	3.6991	62.39	-0.2453	0.0109	0.2562	757.3529	0.135375	-325.778444	-325.770619	-325.769675	-325.810257	27.489	
C	 0.1037131991	 1.4208353008	 0.3434684671	-0.406698
C	-0.077118866	-0.0263433718	-0.0505796067	-0.004613
C	 0.6386267283	-0.6795711384	-1.2166593587	-0.016376
C	 1.6072207398	 0.0535307089	-2.1162178299	-0.414346
N	 0.9720350366	-1.0009825118	 0.1589009823	-0.068852
C	 2.1596427488	-0.8422983921	 0.8312579279	 0.142815
O	 2.2856570517	-0.2928314621	 1.9018320146	-0.308969
H	 1.076809483	 1.8170754315	 0.0482163832	 0.128337
H	-0.6761739578	 2.0320316047	-0.1221718196	 0.119756
H	 0.0261575095	 1.5261401142	 1.4286289312	 0.15211
H	-1.0706095951	-0.4183138792	 0.1676772077	 0.10142
H	 0.0908561901	-1.4749834663	-1.7225882674	 0.100403
H	 2.1526038118	 0.8384881152	-1.5872295478	 0.13296
H	 2.3425474487	-0.6390985109	-2.5383040846	 0.132759
H	 1.0691439417	 0.5121176882	-2.9524116591	 0.131623
H	 2.9956988798	-1.3531384508	 0.3134144697	 0.077672
117.4086	142.5325	161.4316	180.2232	246.6784	272.0479	366.4193	485.7996	498.5658	623.5261	750.5817	818.7729	901.9867	966.8968	1030.5857	1036.7222	1074.4583	1091.3499	1136.7436	1169.3913	1192.401	1199.757	1379.1155	1389.312	1416.479	1418.1331	1427.2908	1457.8138	1478.8245	1485.5914	1493.4266	1511.4878	1787.0901	2934.7313	3040.6054	3049.1164	3095.5252	3100.9623	3106.3046	3118.3202	3127.3682	3141.1078
CC1C(C)N1C=O	C[C@H]1[C@@H](C)N1C=O	
InChI=1S/C5H9NO/c1-4-5(2)6(4)3-7/h3-5H,1-2H3	InChI=1S/C5H9NO/c1-4-5(2)6(4)3-7/h3-5H,1-2H3/t4-,5+,6?
