13
gdb 3304	6.03927	2.15839	1.91046	5.5166	57.92	-0.2509	0.0291	0.28	671.3095	0.103559	-303.462115	-303.456254	-303.455309	-303.491814	21.876	
N	 0.0179738065	-1.1884001243	-0.1399371053	-0.330222
C	 0.0221669093	-0.0362419202	-0.047104593	 0.289259
C	 0.0101305189	 1.4159538319	 0.0542849955	-0.148668
C	-0.226962704	 2.0748100624	 1.472778517	-0.234866
C	 1.1150042824	 2.7948799368	 1.3088656827	-0.03916
N	 2.1290019112	 1.7245590324	 1.1798282794	-0.313673
C	 1.3643334554	 2.1499681944	-0.0083864045	-0.055565
H	-0.6944572737	 1.8201022739	-0.6765048309	 0.127065
H	-1.0951989407	 2.7349918909	 1.4648838795	 0.118389
H	-0.2831583705	 1.3842204954	 2.315195532	 0.133918
H	 1.383180201	 3.7829411166	 1.6592472744	 0.106476
H	 3.0454366713	 2.1670890958	 1.1219329773	 0.238147
H	 1.8569465129	 2.5118380539	-0.901446974	 0.1089
128.9461	180.6241	324.5972	435.6475	519.7993	595.3394	686.0054	791.1704	823.804	842.4378	912.4773	949.37	975.239	991.4867	1035.9531	1068.8257	1100.8387	1119.001	1157.2055	1198.0446	1247.8904	1277.0578	1320.0738	1347.107	1382.4294	1475.7458	2357.7676	3083.6179	3088.9413	3149.0527	3196.5851	3209.7295	3484.279
N#CC1CC2NC12	N#C[C@H]1C[C@H]2N[C@@H]12	
InChI=1S/C5H6N2/c6-2-3-1-4-5(3)7-4/h3-5,7H,1H2	InChI=1S/C5H6N2/c6-2-3-1-4-5(3)7-4/h3-5,7H,1H2/t3-,4-,5+/m1/s1
