13
gdb 3981	6.49567	0.79547	0.71179	4.1003	76.59	-0.2568	-0.0857	0.1711	1464.6313	0.092065	-398.536399	-398.527448	-398.526503	-398.571419	29.331	
C	-0.0360087532	 1.497226263	 0.001184083	-0.479935
C	 0.016271385	-0.00955985	 0.0436034106	 0.186668
N	 0.0790735685	-0.7038462816	 1.1313613933	-0.128219
O	 0.0916718754	 0.1176530287	 2.2432735586	-0.374992
C	-0.0023576645	-0.7568997654	-1.162833179	 0.022844
C	-0.0208269584	-1.3471672338	-2.2198882647	 0.118785
C	-0.0439319602	-2.0259576153	-3.4877988798	 0.008285
O	-0.0079916111	-3.2281312581	-3.6236648992	-0.225873
H	 0.8472767764	 1.9173214106	 0.4921957828	 0.156649
H	-0.0845053586	 1.8563867149	-1.0263757412	 0.137531
H	-0.9086695809	 1.8581619628	 0.554328615	 0.156648
H	 0.1395481593	-0.5132146616	 2.9712134857	 0.32124
H	-0.0988995578	-1.3453881442	-4.3616616451	 0.100367
55.1074	66.7014	76.3631	117.4603	206.1621	276.4595	284.398	419.4129	430.4085	522.1418	531.912	592.7958	670.8044	780.0309	961.6102	1016.8585	1047.3566	1052.3664	1058.6634	1300.2105	1400.0764	1405.5217	1422.6263	1475.4689	1483.3109	1649.3185	1759.3545	2309.7995	2919.4295	3049.6309	3108.4415	3157.6732	3804.159
CC(=NO)C#CC=O	CC(=NO)C#CC=O	
InChI=1S/C5H5NO2/c1-5(6-8)3-2-4-7/h4,8H,1H3	InChI=1S/C5H5NO2/c1-5(6-8)3-2-4-7/h4,8H,1H3
