17
gdb 2340	5.26614	1.62664	1.40844	1.7566	61.15	-0.2277	0.0739	0.3016	906.1539	0.146713	-346.823312	-346.815373	-346.814428	-346.855689	28.659	
C	-0.3247850491	 1.4498764317	-0.0311007492	-0.387915
C	-0.3167840681	-0.047712171	-0.2798427806	-0.047737
O	-1.3561400433	-0.6387507961	 0.5014333482	-0.264155
C	-1.438013836	-2.0246276314	 0.3255870129	 0.079446
C	-2.7310498584	-2.659474198	 0.7646593284	-0.363613
C	-2.4325472374	-2.4875282937	-0.7106486016	 0.121927
O	-3.105260104	-1.5136115244	-1.448914353	-0.433149
H	 0.4764654221	 1.9320607275	-0.5987559113	 0.120178
H	-1.277546936	 1.8907004542	-0.3392674794	 0.124388
H	-0.1766116123	 1.6637597851	 1.0310426307	 0.13086
H	-0.472928755	-0.2743643584	-1.3442339151	 0.107184
H	 0.6510004836	-0.484503579	 0.0119040055	 0.09599
H	-0.4986358787	-2.5568338213	 0.4748538884	 0.086186
H	-2.6942351424	-3.6491452325	 1.2068300442	 0.11505
H	-3.4743459893	-1.993187939	 1.1903234191	 0.124949
H	-2.2221943055	-3.3647334363	-1.3132901696	 0.103107
H	-2.9608704501	-0.6801545673	-0.9806752176	 0.287304
69.8819	94.3367	174.324	227.3524	261.32	354.4298	400.6215	440.4602	476.7051	663.3741	770.0018	789.613	822.0269	844.5272	925.4168	1003.5663	1037.408	1073.3528	1080.5716	1111.8763	1121.3137	1144.5582	1182.2899	1188.4931	1225.5434	1296.7901	1331.3592	1357.2274	1403.7282	1431.4497	1435.414	1482.6319	1483.5304	1498.6568	1526.4575	2982.969	3022.3878	3044.7807	3099.6884	3117.5249	3123.1827	3131.5815	3169.0563	3223.6516	3754.2603
CCOC1CC1O	CCO[C@H]1C[C@H]1O	
InChI=1S/C5H10O2/c1-2-7-5-3-4(5)6/h4-6H,2-3H2,1H3	InChI=1S/C5H10O2/c1-2-7-5-3-4(5)6/h4-6H,2-3H2,1H3/t4-,5+/m1/s1
