17
gdb 3223	4.98408	2.61012	2.24975	0.3712	67.13	-0.2032	0.0901	0.2933	671.2039	0.148777	-272.514475	-272.508201	-272.507257	-272.543961	25.545	
C	-0.0088752008	 1.5183764	 0.0347572257	-0.491907
C	 0.0088021703	 0.0185971415	 0.0089110282	 0.364499
C	-0.9006263003	-0.8486803838	 0.8369521176	-0.350857
C	 0.595031783	-0.9706147552	 1.0043547689	-0.101455
C	 1.3041085421	-1.7277325992	-0.1520673631	-0.044243
C	 0.3768306609	-2.2284233804	-1.2254367413	-0.30094
C	 0.7012990146	-0.7597690981	-1.1554436885	-0.105215
H	 0.979915664	 1.9330280786	-0.1961231753	 0.115292
H	-0.7153242052	 1.9231716744	-0.701373468	 0.116984
H	-0.3061450053	 1.8926519409	 1.0198498019	 0.114832
H	-1.3869156713	-0.3188650862	 1.6518363025	 0.105643
H	-1.5148712761	-1.6404884541	 0.4219387362	 0.107605
H	 1.0802352924	-0.7639634939	 1.9504515697	 0.082622
H	 2.3308966576	-2.0626603757	-0.0803952374	 0.085396
H	 0.8808754421	-2.7491216412	-2.0349830111	 0.10883
H	-0.6090970423	-2.6269731462	-1.0136548302	 0.110238
H	 1.1956312643	-0.2430432314	-1.969025536	 0.082679
208.5474	217.165	295.0182	371.6751	440.4022	503.4766	598.6669	699.5654	751.1088	795.0739	829.6138	874.1181	905.3635	926.6104	953.2845	975.2442	979.6868	1020.7995	1037.6533	1053.1515	1065.9532	1095.2351	1103.1489	1129.6536	1181.801	1224.0567	1266.7756	1295.8075	1323.1938	1396.532	1421.546	1482.9546	1484.3459	1501.4109	1520.2133	3013.3811	3067.5558	3094.2918	3117.3335	3130.4553	3177.8142	3180.9397	3192.8164	3196.0077	3206.2112
CC12CC1C1CC21	C[C@]12C[C@H]1[C@H]1C[C@@H]21	
InChI=1S/C7H10/c1-7-3-6(7)4-2-5(4)7/h4-6H,2-3H2,1H3	InChI=1S/C7H10/c1-7-3-6(7)4-2-5(4)7/h4-6H,2-3H2,1H3/t4-,5+,6-,7+/m0/s1
