14
gdb 1221	7.3163	1.32736	1.13923	2.8014	55.73	-0.2515	-0.0323	0.2192	979.7722	0.111338	-361.762744	-361.754629	-361.753685	-361.797253	26.522	
C	-0.0387675186	 1.4844173473	 0.0103101219	-0.477468
C	 0.0406093154	-0.025296557	 0.0017102245	 0.368936
O	 1.0919041506	-0.6261747318	-0.0121811419	-0.297158
C	-1.2865743573	-0.7733096173	 0.0116868444	-0.225723
N	-1.0492258961	-2.192404571	 0.0026896154	-0.279211
C	-2.0583549756	-3.0954025522	 0.0044132748	 0.154514
O	-3.2379525226	-2.8070974087	 0.0153034214	-0.329591
H	 0.9659856099	 1.9072440986	 0.0026376683	 0.151912
H	-0.5970802071	 1.840877588	-0.8623840629	 0.149914
H	-0.5799620624	 1.8318895736	 0.8972818831	 0.149882
H	-1.8680606009	-0.4677415393	 0.8931434749	 0.14586
H	-1.885606175	-0.4597414144	-0.8551110062	 0.145947
H	-0.0788282947	-2.4742021334	-0.0088200153	 0.263122
H	-1.6850948157	-4.1382437824	-0.0049514723	 0.079065
17.8704	49.0554	125.1765	151.2033	272.9157	302.9443	383.598	468.8531	587.1951	596.0139	749.0103	855.7359	887.6225	950.4034	1037.1501	1082.0408	1088.7425	1187.6046	1235.3666	1238.3442	1359.8616	1389.7985	1423.6857	1461.1041	1475.6577	1480.078	1516.9324	1793.9965	1814.4457	2944.2699	3012.6039	3030.7645	3041.5939	3101.8338	3158.7138	3599.4279
CC(=O)CNC=O	CC(=O)CNC=O	
InChI=1S/C4H7NO2/c1-4(7)2-5-3-6/h3H,2H2,1H3,(H,5,6)	InChI=1S/C4H7NO2/c1-4(7)2-5-3-6/h3H,2H2,1H3,(H,5,6)
