16
gdb 2262	3.71259	2.78216	2.14824	1.752	60.53	-0.23	0.0648	0.2949	682.7732	0.136497	-325.730097	-325.723075	-325.72213	-325.76065	26.439	
C	 0.0284108515	 1.5256599783	 0.0418620947	-0.499684
C	-0.0340485183	 0.0303295886	-0.0467877956	 0.356177
C	-0.8787771766	-0.8161562668	 0.8205439018	-0.27728
N	 0.5846890396	-0.9053241878	 0.9949152378	-0.168212
C	 1.0406953332	-1.7969233099	-0.1284136785	-0.197465
C	 0.5129666478	-0.8010172762	-1.1997735085	 0.042779
O	-0.4707322399	-1.2162152661	-2.12289721	-0.433946
H	 1.0183320228	 1.9014801657	-0.2390995102	 0.119074
H	-0.7092207698	 1.9813244759	-0.6288861605	 0.129061
H	-0.1847748701	 1.8630898887	 1.0601742883	 0.128817
H	-1.3749314478	-0.3230169749	 1.6511388812	 0.115699
H	-1.4164633947	-1.6645053437	 0.4042152504	 0.12058
H	 2.1271737176	-1.9083349655	-0.1128662013	 0.104776
H	 0.5682709363	-2.7850191327	-0.1277762999	 0.102861
H	 1.3382947016	-0.2842728206	-1.7076556543	 0.072484
H	-0.035747203	-1.6946980029	-2.8359049054	 0.28428
147.2635	167.1099	245.8393	263.882	310.2219	388.3296	481.6785	537.0053	642.9989	719.5149	767.1056	850.629	882.628	956.6005	974.1867	1026.7199	1062.5002	1086.8636	1111.2812	1124.8499	1140.6168	1198.7097	1206.8515	1264.2307	1285.8851	1334.6406	1376.2427	1416.8043	1445.6192	1482.0467	1486.9314	1494.192	1514.7086	3010.4151	3028.903	3044.3447	3090.2118	3109.5132	3110.2818	3112.3557	3199.688	3814.6715
CC12CN1CC2O	C[C@]12CN1C[C@H]2O	
InChI=1S/C5H9NO/c1-5-3-6(5)2-4(5)7/h4,7H,2-3H2,1H3	InChI=1S/C5H9NO/c1-5-3-6(5)2-4(5)7/h4,7H,2-3H2,1H3/t4-,5-,6?/m1/s1
