15
gdb 3343	4.19616	3.32454	2.20975	0.4014	56.33	-0.2282	0.0811	0.3093	618.5213	0.126679	-345.620593	-345.614769	-345.613825	-345.650061	22.633	
C	-0.0019924422	 1.552721672	-0.077199348	-0.346192
C	 1.3016590792	 0.7814886098	 0.0267373051	 0.060679
O	 2.0169319291	 0.9031742343	 1.2258436036	-0.257033
C	 1.7815399982	-0.1842646421	 2.1118549966	-0.08125
C	 0.2944548347	-0.3159444617	 2.3978648672	-0.081728
O	-0.4345101648	-0.6199684906	 1.2147209742	-0.259195
C	-0.010419401	 0.0474105389	 0.0614892707	 0.101894
H	-0.2549549502	 2.1513236959	 0.7905837953	 0.125137
H	-0.2934284587	 1.9799961503	-1.0305345451	 0.1132
H	 1.9450651507	 0.6949407169	-0.8465402729	 0.093867
H	 2.1658039707	-1.1247615552	 1.6885791956	 0.099513
H	 2.3326216446	 0.0398788908	 3.0295326967	 0.112136
H	 0.0986442811	-1.1369428164	 3.0943365191	 0.111929
H	-0.0716198751	 0.6175973804	 2.8522006173	 0.100782
H	-0.2943000461	-0.5297897632	-0.8123571555	 0.106262
133.6441	273.3809	356.6209	424.5097	498.2563	511.1394	705.8823	737.5806	799.708	821.7418	899.7927	924.7443	980.4195	1034.1181	1047.5204	1074.3645	1097.2114	1121.0931	1129.3019	1170.4456	1192.3472	1252.824	1269.4579	1311.1234	1345.4403	1387.9372	1405.9825	1423.2722	1471.7133	1492.3965	1501.1062	2987.1515	2998.4549	3084.4354	3094.8135	3117.7462	3136.7388	3162.2809	3229.1467
C1C2OCCOC12	C1[C@H]2OCCO[C@@H]12	
InChI=1S/C5H8O2/c1-2-7-5-3-4(5)6-1/h4-5H,1-3H2	InChI=1S/C5H8O2/c1-2-7-5-3-4(5)6-1/h4-5H,1-3H2/t4-,5+
