13
gdb 974	3.65083	3.44963	1.79343	2.6012	55.6	-0.194	0.0466	0.2407	668.6975	0.102517	-340.673964	-340.667071	-340.666127	-340.704955	24.472	
C	 0.0758063563	 1.5076065859	 0.043820439	-0.496672
C	 0.0665553556	 0.0149291474	-0.0194927261	 0.159937
C	-0.0275882858	-0.7994808019	-1.1188327679	 0.300632
O	-0.1389472425	-0.5974269059	-2.4561053494	-0.436292
N	 0.0073913662	-2.0917479715	-0.6598499755	-0.291717
C	 0.1218150358	-2.0163683092	 0.7052691025	-0.00245
N	 0.1594307508	-0.7760653849	 1.1155518587	-0.301146
H	 0.9999127357	 1.884573955	 0.4957644922	 0.136912
H	-0.0065957499	 1.9555247621	-0.9537781571	 0.090279
H	-0.7582232649	 1.8892131418	 0.643069611	 0.136916
H	-0.1499664718	 0.3511649929	-2.6176623104	 0.307944
H	-0.0429604287	-2.9152838839	-1.2355361502	 0.269784
H	 0.1713471832	-2.8984417278	 1.3251932332	 0.125873
62.8431	191.2527	241.4999	260.5606	316.418	450.2966	473.9461	643.1143	668.2957	689.8962	745.5042	769.4305	952.6018	976.1049	1060.3465	1094.6671	1125.8258	1217.1575	1288.2357	1308.9043	1407.8107	1421.5015	1468.1351	1494.9422	1513.2094	1548.9557	1662.2697	3020.5217	3081.704	3082.5288	3253.972	3668.1671	3839.0803
CC1=C(O)NC=N1	Cc1c(O)[nH]cn1	
InChI=1S/C4H6N2O/c1-3-4(7)6-2-5-3/h2,7H,1H3,(H,5,6)	InChI=1S/C4H6N2O/c1-3-4(7)6-2-5-3/h2,7H,1H3,(H,5,6)
