17
gdb 3185	4.4312	2.32825	1.87777	1.7263	63.6	-0.2626	0.0923	0.3549	744.0882	0.147568	-309.689751	-309.68254	-309.681596	-309.720745	27.184	
C	 0.0749236908	 1.5874566585	-0.4767817957	-0.45712
C	-0.0635816215	 0.1354599362	-0.0739008443	 0.403452
C	 1.0658558237	-0.78781782	-0.266940707	-0.222479
O	 0.7593503389	-0.2656889405	 1.0317108772	-0.272257
C	-1.4707105227	-0.394563034	-0.0423453478	-0.058483
C	-1.8262903658	-1.5846304756	 0.8059245148	-0.273811
C	-2.3065970516	-0.2107116221	 1.2022603633	-0.263325
H	 1.1211935273	 1.9012445618	-0.4462778956	 0.123811
H	-0.3081117458	 1.7454819146	-1.4909106429	 0.118721
H	-0.4992743332	 2.2273974343	 0.2010546875	 0.128628
H	 0.873109382	-1.8517109966	-0.3954322735	 0.111735
H	 1.9955642808	-0.4251448738	-0.703809767	 0.109354
H	-1.9927265384	-0.2932328283	-0.9904400594	 0.083525
H	-2.5459373353	-2.2956734535	 0.4160964785	 0.106882
H	-1.0317433708	-2.0134115063	 1.4054052153	 0.128578
H	-1.8264956786	 0.2485195992	 2.0595513293	 0.123789
H	-3.3574842996	 0.0299595062	 1.0875607272	 0.109
88.2783	195.8714	212.3092	231.3448	343.7641	375.222	476.4383	522.136	665.9563	791.0317	822.8439	825.8115	867.7884	915.496	939.0349	963.0111	1025.5425	1061.9137	1074.6676	1090.2594	1126.7791	1134.0462	1136.6919	1171.1154	1202.2116	1221.2428	1245.5907	1380.9145	1412.1653	1415.6185	1458.0875	1481.454	1495.2785	1501.1547	1526.399	3036.2666	3081.3526	3100.6978	3123.6303	3134.772	3137.1432	3142.5873	3169.3137	3218.0413	3233.5684
CC1(CO1)C1CC1	C[C@]1(CO1)C1CC1	
InChI=1S/C6H10O/c1-6(4-7-6)5-2-3-5/h5H,2-4H2,1H3	InChI=1S/C6H10O/c1-6(4-7-6)5-2-3-5/h5H,2-4H2,1H3/t6-/m0/s1
