14
gdb 4363	4.22297	1.86398	1.29502	3.4247	68.32	-0.2226	0.0029	0.2255	883.1978	0.110928	-374.979651	-374.972839	-374.971895	-375.010171	26.799	
N	 0.0128034224	 1.3697701287	-0.1508621008	-0.568137
C	-0.0250555589	 0.0020926716	-0.0548387866	 0.408882
C	-1.2271711518	-0.7051624317	 0.0036693839	-0.278515
C	-1.1343031764	-2.0971736998	 0.0517488944	 0.408784
N	-2.2422602719	-2.8991158749	 0.1564492456	-0.568181
N	 0.0529059786	-2.7344512945	 0.0391703812	-0.337306
C	 1.1219842947	-1.9474066576	-0.0151901395	 0.070398
N	 1.1700180845	-0.6204336337	-0.0613739869	-0.33732
H	 0.9130878916	 1.7796946389	 0.0437202824	 0.258328
H	-0.7858513512	 1.8920709283	 0.1692759084	 0.251987
H	-2.1859795558	-0.1981554679	 0.011411194	 0.073784
H	-3.1272578671	-2.5310650559	-0.1511081645	 0.251969
H	-2.0765493921	-3.8726285801	-0.0468814813	 0.25831
H	 2.0845022135	-2.4563930515	-0.0229053304	 0.107016
182.3958	221.0762	326.5023	397.4641	418.4325	443.6026	457.2988	495.1023	508.0599	568.4714	582.993	719.3845	785.922	841.2132	846.212	991.2237	992.8683	1008.06	1064.6792	1097.4675	1250.8736	1320.8994	1341.8981	1380.7596	1486.6338	1518.3166	1599.3695	1622.2115	1641.9848	1656.1263	3145.8196	3177.0512	3589.5315	3590.7322	3710.2334	3711.0383
NC1=CC(N)=NC=N1	Nc1cc(N)ncn1	
InChI=1S/C4H6N4/c5-3-1-4(6)8-2-7-3/h1-2H,(H4,5,6,7,8)	InChI=1S/C4H6N4/c5-3-1-4(6)8-2-7-3/h1-2H,(H4,5,6,7,8)
