19
gdb 1696	3.85499	1.86051	1.3574	1.8458	64.16	-0.2497	0.0751	0.3248	932.3201	0.168591	-348.048744	-348.03948	-348.038536	-348.082288	32.797	
C	 0.0196684137	 1.392070488	-0.1365945013	-0.233471
O	-0.0332161054	 0.013057727	 0.142209131	-0.245736
C	-1.3239513408	-0.5723474604	 0.0421912007	 0.132
C	-1.7892559306	-0.7160702329	-1.4071777191	-0.405524
C	-1.2376780896	-1.9370458833	 0.7546369646	 0.122212
C	-0.7559048946	-1.8164760105	 2.1975235104	-0.409802
O	-2.4869952988	-2.6184710253	 0.6746208672	-0.429885
H	 1.0381098549	 1.7249772185	 0.0798949995	 0.12601
H	-0.2040526092	 1.6216391414	-1.1881450318	 0.109014
H	-0.6799040898	 1.9614000727	 0.4960663848	 0.101076
H	-2.0486895706	 0.0533476526	 0.5982374161	 0.046385
H	-2.7234778782	-1.2803636896	-1.4389160466	 0.132695
H	-1.9554236448	 0.2558076402	-1.8799891018	 0.108589
H	-1.0355245732	-1.2580214504	-1.9880379779	 0.120214
H	-0.5375627517	-2.5635848449	 0.1885858042	 0.094826
H	-1.4488932342	-1.1986734852	 2.7846584506	 0.097871
H	-0.7037255658	-2.8054633567	 2.6608021836	 0.11884
H	 0.2276791578	-1.3453498781	 2.2387989593	 0.137853
H	-3.091014679	-2.189849333	 1.2913154266	 0.276833
73.2622	78.7494	188.5209	203.3261	227.4138	239.7239	293.4116	300.7386	346.4025	414.553	438.4256	482.104	531.6659	821.4369	871.4921	927.3256	984.3389	1044.2811	1076.4131	1104.6307	1129.7743	1155.5588	1181.8681	1193.2522	1220.9792	1285.9181	1330.9025	1364.9336	1391.6594	1395.3414	1397.3919	1415.99	1478.0022	1484.5613	1489.9456	1492.7863	1498.8454	1504.0489	1513.034	2917.1743	2975.9507	3020.6699	3028.4022	3043.1892	3046.1472	3100.4907	3108.2019	3112.5534	3137.0728	3142.562	3797.6379
COC(C)C(C)O	CO[C@@H](C)[C@@H](C)O	
InChI=1S/C5H12O2/c1-4(6)5(2)7-3/h4-6H,1-3H3	InChI=1S/C5H12O2/c1-4(6)5(2)7-3/h4-6H,1-3H3/t4-,5+/m1/s1
