13
gdb 2664	5.70895	1.41907	1.15293	1.9433	57.8	-0.2696	0.0013	0.2708	965.7566	0.100458	-340.636306	-340.628407	-340.627463	-340.669428	25.49	
C	-0.3430926535	 1.154301757	 0.2532957936	-0.255848
O	 0.6329199871	 0.1271269143	 0.0853052178	-0.19286
C	 0.5864671472	-0.8670208832	 0.9821292671	 0.147735
N	 1.4141315528	-1.816923738	 0.90549438	-0.23849
C	 1.3662075708	-2.8936349471	 1.8732190362	-0.239591
C	 0.324425569	-2.8081930157	 2.9146229214	 0.230825
N	-0.5079111877	-2.695600871	 3.7088863502	-0.314317
H	-0.2311123171	 1.6553122753	 1.2214744949	 0.136526
H	-0.1671780692	 1.8737203115	-0.5465657296	 0.151616
H	-1.359955756	 0.7556309133	 0.1640129575	 0.136528
H	-0.2006265488	-0.7712996347	 1.7420321621	 0.110384
H	 1.2350739138	-3.8436200243	 1.3402200509	 0.163749
H	 2.3401184817	-2.9640486275	 2.3735094577	 0.163742
46.7469	112.54	121.6935	166.4936	235.6343	279.8811	374.9873	426.7862	509.1498	669.4257	901.42	965.8375	1017.6802	1029.4747	1068.7951	1177.2375	1184.1348	1267.2848	1294.2814	1350.6029	1426.4081	1465.0542	1490.0982	1495.6814	1499.5276	1773.737	2349.7936	3022.1533	3031.994	3040.1591	3056.9038	3091.8564	3152.5673
COC=NCC#N	COC=NCC#N	
InChI=1S/C4H6N2O/c1-7-4-6-3-2-5/h4H,3H2,1H3	InChI=1S/C4H6N2O/c1-7-4-6-3-2-5/h4H,3H2,1H3
