11
gdb 2497	3.10726	2.34286	1.41204	3.4189	55.07	-0.2617	-0.0704	0.1912	791.1688	0.07418	-343.224836	-343.217202	-343.216258	-343.257886	24.978	
O	-0.0181744174	 0.0077174131	-0.3255574254	-0.217199
C	 0.024529194	 1.1471893951	 0.0389377599	 0.157966
C	 1.3316538948	 1.9761788776	 0.0643122764	-0.314286
C	 1.3915953512	 2.822341732	-1.2305235303	 0.15791
O	 2.0023714204	 2.4840735958	-2.2029749393	-0.217227
C	 1.3651649523	 2.8354893797	 1.2348313818	 0.281303
C	 1.3439625626	 3.5719718826	 2.1843198525	-0.434066
H	-0.8719793083	 1.7025618828	 0.383676139	 0.108636
H	 2.1636748749	 1.268150586	 0.0260139306	 0.154103
H	 0.8145813179	 3.7687389262	-1.1815979192	 0.108634
H	 1.3478903676	 4.2114368391	 3.032885394	 0.214225
38.9127	70.7382	157.8309	173.6869	274.2179	414.6946	487.855	514.1319	516.2116	648.2768	666.5245	849.0035	948.4239	1025.0327	1036.4021	1092.8273	1204.2417	1276.86	1398.6965	1419.5233	1819.3332	1856.7613	2237.1789	2916.6979	2926.1836	3090.816	3500.0169
O=CC(C=O)C#C	O=CC(C=O)C#C	
InChI=1S/C5H4O2/c1-2-5(3-6)4-7/h1,3-5H	InChI=1S/C5H4O2/c1-2-5(3-6)4-7/h1,3-5H
