19
gdb 4070	5.21008	1.00949	0.90983	0.6798	75.47	-0.239	0.0163	0.2553	1289.3681	0.163655	-365.01517	-365.005973	-365.005029	-365.050046	32.984	
C	-0.1026425147	 1.461996813	 0.1447339522	-0.473892
C	 0.0582501529	-0.0221693657	-0.0429046456	 0.362123
C	 0.1127859008	-0.9224564673	 1.1685706775	-0.290784
C	 1.3264126552	-0.6720878898	 2.0500221295	 0.034934
C	 1.2891876601	 0.3457191079	 3.1643100445	-0.255978
C	 1.3234695052	-1.1277631457	 3.4864499155	-0.275114
N	 0.1678839068	-0.6135366321	-1.1718651199	-0.167202
O	 0.1398517668	 0.2792079637	-2.2580748219	-0.400948
H	-0.4619962587	 1.9344841069	-0.7690434114	 0.150393
H	-0.7973734474	 1.670685207	 0.963928364	 0.121478
H	 0.8557641824	 1.921164063	 0.4128252295	 0.142766
H	-0.7968247845	-0.7765815291	 1.7685070031	 0.096083
H	 0.1117304158	-1.9596042713	 0.8190861747	 0.116579
H	 2.2737016772	-0.7667542121	 1.5254778953	 0.090306
H	 2.1774110938	 0.9374803641	 3.3562513139	 0.111957
H	 0.3587677168	 0.8767974294	 3.3365997166	 0.109666
H	 0.4159659131	-1.5829420102	 3.8701981402	 0.111164
H	 2.2357307085	-1.5464202752	 3.8964933565	 0.112613
H	 0.1813680599	-0.3225215463	-3.0082387341	 0.303859
51.4293	54.1653	82.5688	138.7099	284.8677	308.0611	333.364	356.9996	395.0059	434.7672	535.2294	645.9997	770.1757	799.3716	825.5602	838.8503	892.1929	938.237	967.0016	997.2908	1041.3084	1051.7438	1062.2782	1080.1554	1137.6995	1149.118	1198.1679	1225.444	1246.3775	1285.628	1320.8869	1396.4826	1400.3029	1405.8588	1466.2156	1472.2057	1479.388	1488.67	1506.7193	1729.9996	3007.8406	3042.4202	3081.6012	3096.0678	3128.7785	3133.1232	3141.3845	3156.7751	3206.5725	3221.6987	3825.3231
CC(CC1CC1)=NO	CC(=NO)CC1CC1	
InChI=1S/C6H11NO/c1-5(7-8)4-6-2-3-6/h6,8H,2-4H2,1H3	InChI=1S/C6H11NO/c1-5(7-8)4-6-2-3-6/h6,8H,2-4H2,1H3
