15
gdb 2289	8.97605	1.1965	1.14127	1.9646	65.93	-0.2463	0.0457	0.292	1044.7267	0.124215	-308.47027	-308.462475	-308.461531	-308.504567	25.809	
C	 0.0795213895	 1.5400359336	-0.0920257479	-0.497016
C	 0.0580222811	 0.0858301063	-0.0278184075	 0.053619
C	 0.0438694323	-1.117876025	 0.0216291168	 0.085094
C	 0.0096915781	-2.5624301871	 0.0971181269	-0.209993
C	 0.0529568346	-3.2470375294	 1.4933412783	-0.072864
O	-1.1021037629	-4.0471212399	 1.1812079016	-0.269245
C	-1.3591844945	-3.2925730197	-0.017246627	-0.072871
H	 0.9068363111	 1.899925635	-0.713614509	 0.148747
H	-0.8502232461	 1.9326957289	-0.5185235389	 0.149335
H	 0.1974269576	 1.9806034992	 0.9041906437	 0.149239
H	 0.7478296826	-3.0027912588	-0.5796351308	 0.107599
H	 0.9347220432	-3.8586043385	 1.7126184731	 0.107708
H	-0.1324225987	-2.5566056024	 2.3256245213	 0.106466
H	-2.2224540241	-2.6239576502	 0.0898706298	 0.106483
H	-1.4997630538	-3.937113262	-0.8915534405	 0.107699
11.1042	77.5665	113.3043	160.1982	298.8954	311.6675	471.1345	506.1272	618.3232	839.3745	890.5373	916.7146	1001.1156	1022.3181	1038.9333	1052.3632	1053.2436	1108.6936	1158.4916	1171.455	1198.451	1241.7799	1303.3464	1347.4648	1382.9322	1415.2582	1477.9318	1478.4434	1509.3365	1535.3017	2369.363	3013.4574	3023.8399	3026.3386	3053.739	3071.4361	3079.8565	3086.8541	3087.291
CC#CC1COC1	CC#CC1COC1	
InChI=1S/C6H8O/c1-2-3-6-4-7-5-6/h6H,4-5H2,1H3	InChI=1S/C6H8O/c1-2-3-6-4-7-5-6/h6H,4-5H2,1H3
