15
gdb 2998	7.32948	1.59305	1.4548	3.5551	59.57	-0.2504	0.0203	0.2706	855.4898	0.126015	-341.84212	-341.834558	-341.833614	-341.874262	26.044	
C	-0.0530538776	 1.5068574978	-0.2395761655	-0.334636
N	-0.0812954024	 0.0577916255	-0.2867056535	-0.326548
C	-1.0580339763	-0.6795138671	 0.3063496442	 0.441314
O	-2.0034757128	-0.1918665527	 0.9101976159	-0.400436
C	-0.9079652182	-2.1683757788	 0.1689982746	-0.119865
C	-1.1926005336	-2.9762130851	 1.3920638872	-0.221071
N	-2.1404786166	-2.9593448296	 0.2813301412	-0.30564
H	 0.8375469487	 1.8726764137	 0.2835800862	 0.128039
H	-0.0695263272	 1.9366401627	-1.2470035494	 0.128772
H	-0.9422428364	 1.8310038058	 0.3018439536	 0.17429
H	 0.6616845807	-0.4265190603	-0.7627502762	 0.249045
H	-0.1874405762	-2.5353271394	-0.5582148381	 0.085032
H	-0.6638783895	-3.9132958357	 1.5408636243	 0.120081
H	-1.4422911466	-2.4217353192	 2.291707344	 0.133241
H	-2.8832797759	-2.2970494876	 0.5101530215	 0.248383
71.2261	90.3942	147.9458	210.8692	295.238	334.8532	422.3754	481.5291	681.8327	765.7729	830.4996	875.0976	909.1842	983.0562	1020.0774	1064.0572	1120.9978	1133.6345	1154.1223	1169.8701	1187.8545	1243.7298	1294.2087	1325.6467	1405.56	1440.9074	1494.5871	1495.1723	1499.8671	1569.3438	1762.1581	3029.568	3082.3137	3114.5548	3132.1114	3156.9714	3209.3145	3460.9569	3646.905
CNC(=O)C1CN1	CNC(=O)[C@H]1CN1	
InChI=1S/C4H8N2O/c1-5-4(7)3-2-6-3/h3,6H,2H2,1H3,(H,5,7)	InChI=1S/C4H8N2O/c1-5-4(7)3-2-6-3/h3,6H,2H2,1H3,(H,5,7)/t3-/m1/s1
