14
gdb 4663	5.24318	1.40405	1.1152	6.9586	68.25	-0.2377	-0.0326	0.2051	1011.7127	0.107961	-378.781205	-378.773873	-378.772929	-378.813141	26.094	
C	-0.0315968344	 1.495446367	 0.0455504515	-0.50033
C	 0.0014401292	 0.0060201053	-0.0282299338	 0.349384
N	-0.0303400349	-0.7161669531	-1.1182986321	-0.318073
C	 0.0207960925	-2.0352436248	-0.7036201035	 0.170907
C	 0.0083083279	-3.1913619663	-1.5983417932	 0.078536
O	-0.0480293992	-3.1579084595	-2.8047248724	-0.270893
C	 0.0846774866	-2.095927422	 0.6721661161	-0.146681
N	 0.0719034379	-0.7960236721	 1.0923494607	-0.27747
H	 0.8661395646	 1.8980937699	 0.5281390163	 0.13675
H	-0.0865795702	 1.8901811287	-0.9691889335	 0.16924
H	-0.9013132073	 1.8549336446	 0.607084922	 0.136783
H	 0.0572179312	-4.162003487	-1.0499296617	 0.054442
H	 0.1358597586	-2.925233625	 1.3589460146	 0.147426
H	 0.1076635674	-0.4827801757	 2.0488010891	 0.269979
92.5803	134.8761	171.7153	207.7263	346.6554	358.867	496.582	557.9569	662.9381	663.5518	708.56	773.9948	803.6193	960.1318	996.2894	1029.4979	1052.3431	1064.6214	1115.5426	1222.9081	1334.7069	1368.8839	1405.6003	1416.5171	1444.077	1483.5395	1490.5032	1567.4146	1604.7544	1807.5269	2845.8764	3034.5603	3085.9039	3155.6442	3270.372	3652.4614
CC1=NC(C=O)=CN1	Cc1nc(C=O)c[nH]1	
InChI=1S/C5H6N2O/c1-4-6-2-5(3-8)7-4/h2-3H,1H3,(H,6,7)	InChI=1S/C5H6N2O/c1-4-6-2-5(3-8)7-4/h2-3H,1H3,(H,6,7)
