11
gdb 4295	4.0344	2.03747	1.35378	3.7288	54.34	-0.2535	-0.0425	0.2111	805.0301	0.073874	-434.59565	-434.589642	-434.588698	-434.625999	22.335	
O	-0.1136791316	 1.2930002678	 0.0100520069	-0.374034
C	 0.0445020606	-0.0256685432	 0.00248331	 0.509326
N	 1.1902964971	-0.5872183795	-0.0068309447	-0.43183
C	 1.2632672285	-1.997649037	-0.0144736569	 0.383592
O	 2.3236135034	-2.5795267667	-0.023387747	-0.342262
C	-0.0413606806	-2.6868870263	-0.0107131037	-0.249971
C	-1.1694084458	-1.9766116153	-0.0007653778	 0.070706
O	-1.1699282376	-0.6078519149	 0.0062674789	-0.187714
H	 0.7786820899	 1.6686942736	 0.0069538214	 0.32706
H	-0.0632555403	-3.7682194761	-0.0161396857	 0.136757
H	-2.1802046737	-2.3616527224	 0.0029068786	 0.158369
127.4064	201.4356	379.9562	404.8047	522.7779	556.9135	572.8432	573.7016	736.3907	773.6328	780.2896	856.1758	936.5694	968.5243	970.0533	1041.159	1201.3366	1255.0217	1298.7259	1403.0988	1455.5669	1633.6337	1722.0154	1806.1904	3226.3827	3245.5295	3776.9557
OC1=NC(=O)C=CO1	Oc1nc(=O)cco1	
InChI=1S/C4H3NO3/c6-3-1-2-8-4(7)5-3/h1-2H,(H,5,6,7)	InChI=1S/C4H3NO3/c6-3-1-2-8-4(7)5-3/h1-2H,(H,5,6,7)
