12
gdb 4018	2.70211	2.01128	1.15531	8.6565	66.06	-0.2025	-0.062	0.1405	935.7705	0.083084	-410.814514	-410.806401	-410.805457	-410.846854	28.975	
N	-0.0441092463	 1.3041694125	-0.1229927027	-0.533823
C	-0.0173439042	-0.040113412	-0.0106006969	 0.420837
N	 1.1765790963	-0.6576238132	 0.077210524	-0.568572
H	 1.19121139	-1.6662032566	 0.0578039473	 0.297227
H	 2.0176350959	-0.1778307046	-0.1964433216	 0.273844
C	-1.2221030534	-0.7674154859	 0.0059807774	 0.112771
N	-2.373229492	-0.0047482648	 0.0465450272	-0.096896
O	-3.4490621744	-0.5965853153	 0.0496899025	-0.313514
C	-1.1934601159	-2.1853400067	-0.0086568315	 0.222057
N	-1.0959765887	-3.3418010401	-0.0180883902	-0.367894
H	 0.7296765938	 1.8471816458	 0.2238412473	 0.268493
H	-0.973574171	 1.7018723209	-0.0551827629	 0.28547
112.906	134.485	192.9504	214.3343	303.5123	343.3827	392.3527	416.4834	443.6212	513.3074	517.4676	586.0887	662.6467	671.9438	741.5444	793.7706	1071.325	1083.2497	1213.69	1261.3003	1520.5502	1538.3386	1586.6672	1647.688	1675.7387	2313.2195	3532.5715	3587.8345	3685.6529	3711.2112
NC(=[NH2+])C(=N[O-])C#N	[NH2]=C(N)C(=N[O])C#N	
InChI=1S/C3H4N4O/c4-1-2(7-8)3(5)6/h8H,(H3,5,6)	InChI=1S/C3H4N4O/c4-1-2(7-8)3(5)6/h5-6H2
