17
gdb 2112	4.64427	2.25828	1.6549	1.7486	60.22	-0.2494	0.0785	0.3279	759.6757	0.15025	-346.86164	-346.85499	-346.854046	-346.891859	25.765	
O	-0.0772238263	 1.4473652801	 0.0196617584	-0.438519
C	 0.0107785666	 0.0300429135	 0.0156021512	 0.135377
C	 0.75451194	-0.5205962531	 1.2382455938	-0.232377
C	 0.6507730649	-2.0496588257	 1.2781922522	-0.076135
O	-0.6968968484	-2.4825419021	 1.2687453187	-0.23922
C	-1.3885423584	-2.0498520054	 0.1093142125	-0.083971
C	-1.4122536211	-0.5229643609	-0.0062641744	-0.196765
H	 0.8171478582	 1.8009882639	 0.0651936785	 0.277969
H	 0.5326345794	-0.3148788469	-0.8951549583	 0.059597
H	 1.8106812288	-0.2206364639	 1.2188955633	 0.082445
H	 0.3030220216	-0.0977550168	 2.1431029664	 0.112089
H	 1.1942992093	-2.4847469383	 0.4205481205	 0.083695
H	 1.0971432752	-2.4506148239	 2.1925379648	 0.108992
H	-0.9233265704	-2.488396216	-0.791267783	 0.084037
H	-2.4020608615	-2.4523816715	 0.1893411744	 0.109638
H	-1.9653056579	-0.0984620812	 0.8392991978	 0.112089
H	-1.9236170299	-0.2175172619	-0.9253183467	 0.101061
165.8652	231.4226	278.5146	343.3108	351.8523	412.5075	481.0235	487.1109	613.8966	821.7405	824.5506	876.4261	911.8147	994.2641	1005.2573	1017.8566	1081.986	1109.0045	1140.6597	1157.5993	1185.9342	1239.602	1263.3279	1293.6693	1314.9175	1335.8442	1353.9815	1377.9155	1398.962	1423.1384	1441.6229	1472.9771	1490.6319	1494.5815	1506.1809	2934.3195	2947.687	2955.797	3020.3997	3042.5657	3074.2279	3086.2049	3088.2372	3091.9027	3810.6902
OC1CCOCC1	OC1CCOCC1	
InChI=1S/C5H10O2/c6-5-1-3-7-4-2-5/h5-6H,1-4H2	InChI=1S/C5H10O2/c6-5-1-3-7-4-2-5/h5-6H,1-4H2
