14
gdb 1683	4.64855	1.83316	1.45161	3.4994	50.25	-0.256	0.0098	0.2657	810.3812	0.112764	-398.878264	-398.870448	-398.869503	-398.910363	27.846	
N	 0.043893215	 1.2432692307	-0.0087546561	-0.519228
C	-0.0195967834	-0.1089260014	 0.0348102137	 0.386012
O	 0.9645801958	-0.8291340925	 0.0894399058	-0.375536
C	-1.4187018189	-0.7301099085	 0.064448219	 0.010971
O	-1.2984098984	-2.118886489	-0.1341195698	-0.443303
C	-2.1146108045	-0.4828093525	 1.4183310605	-0.054874
O	-3.3076484863	-1.2254912453	 1.4882572989	-0.418935
H	 0.9483225002	 1.6854538566	-0.0385911457	 0.271338
H	-0.7756947452	 1.8104255317	-0.1392354592	 0.270414
H	-2.0426194363	-0.3097830466	-0.7370102833	 0.09283
H	-0.3469357147	-2.298335019	-0.0285844285	 0.296591
H	-1.4146213262	-0.7532006327	 2.2265043586	 0.093839
H	-2.377697812	 0.5740108046	 1.5392159336	 0.095771
H	-3.0693754652	-2.1147285362	 1.1933469324	 0.294112
71.2862	121.7964	182.8453	247.9101	304.9675	344.7946	414.6227	476.3849	524.2635	546.5333	569.4381	653.7893	721.8083	864.983	913.6122	1074.479	1090.8143	1095.025	1139.2906	1226.8074	1236.6507	1333.4996	1359.5439	1390.9856	1439.1848	1463.7316	1498.8591	1622.5382	1785.1091	2967.8596	3012.6821	3066.2116	3601.2917	3634.9827	3734.7111	3764.5806
NC(=O)C(O)CO	NC(=O)[C@@H](O)CO	
InChI=1S/C3H7NO3/c4-3(7)2(6)1-5/h2,5-6H,1H2,(H2,4,7)	InChI=1S/C3H7NO3/c4-3(7)2(6)1-5/h2,5-6H,1H2,(H2,4,7)/t2-/m0/s1
