11
gdb 2458	6.76626	2.66333	2.19749	4.8999	45.91	-0.2878	0.0351	0.3229	572.5484	0.079525	-380.414967	-380.409899	-380.408954	-380.443814	19.066	
O	 0.0024358489	 0.0161409966	 0.0382254069	-0.359939
C	-0.0140128065	 1.2023336793	 0.0141539601	 0.496467
O	-1.1443896059	 1.9695731727	 0.0253020989	-0.241158
C	-0.7905961637	 3.3356802092	 0.0194232489	 0.067859
C	-0.0337176295	 3.8315383322	 1.226032018	-0.3441
C	 0.7041563658	 3.3560032217	-0.0003671004	 0.067859
O	 1.0949884322	 2.0000227918	-0.0043541247	-0.241157
H	-1.4553322728	 3.9503640422	-0.5719216833	 0.133525
H	-0.0459726829	 4.9019854205	 1.3995718306	 0.137803
H	-0.0135089648	 3.2117406902	 2.1160828454	 0.149315
H	 1.3360455191	 3.9883249137	-0.6088773804	 0.133526
160.7043	330.5459	475.9523	515.9253	715.9242	740.1815	768.2192	803.8403	811.3379	888.794	973.2664	1006.5179	1009.5061	1071.2664	1080.1015	1122.8886	1140.6179	1157.0409	1197.4424	1359.8599	1384.674	1460.5348	1935.7907	3138.0217	3208.618	3215.4382	3234.6277
O=C1OC2CC2O1	O=C1O[C@H]2C[C@H]2O1	
InChI=1S/C4H4O3/c5-4-6-2-1-3(2)7-4/h2-3H,1H2	InChI=1S/C4H4O3/c5-4-6-2-1-3(2)7-4/h2-3H,1H2/t2-,3+
