17
gdb 1888	3.78471	2.50825	2.11449	1.6322	59.98	-0.2407	0.0706	0.3113	709.7029	0.148644	-346.861074	-346.853813	-346.852869	-346.892385	26.898	
C	 0.6694386896	 1.4040240498	-0.1984251987	-0.391021
C	 0.0464076754	 0.0286028052	 0.0138274101	 0.154542
C	 0.2427545489	-0.9485014705	-1.170111881	-0.256491
C	 1.4082652163	-1.8310307571	-0.7173011307	 0.117813
O	 2.6131225626	-1.160760842	-1.0694648108	-0.432734
C	 1.1705965829	-1.8698446538	 0.7946192941	-0.090555
O	 0.6768559757	-0.5923570857	 1.1494978831	-0.271231
H	 1.720497137	 1.2967177253	-0.4778466959	 0.135293
H	 0.1444864978	 1.9474699595	-0.9915288056	 0.104403
H	 0.6060398975	 1.9930731062	 0.7210704876	 0.11817
H	-1.0227147287	 0.1418919461	 0.2406359109	 0.068123
H	-0.6485877644	-1.5635981148	-1.3228314729	 0.101614
H	 0.474968451	-0.4395780044	-2.107498517	 0.117792
H	 1.3763764401	-2.8356263703	-1.1624311226	 0.064386
H	 3.3433092257	-1.5955715654	-0.6178308589	 0.282591
H	 0.4462379588	-2.6652846873	 1.0408453474	 0.084029
H	 2.0868988638	-2.0620074107	 1.366611611	 0.093274
63.8787	154.2961	261.357	279.2063	335.3787	388.978	405.0637	419.5044	708.7721	787.8878	802.2536	860.4892	870.9754	906.6164	974.2339	1000.7368	1031.77	1049.6888	1114.6317	1131.9407	1163.1946	1196.3694	1211.409	1259.4484	1318.4812	1330.1675	1354.5933	1379.926	1393.9448	1403.203	1417.9651	1477.9923	1488.1791	1501.7741	1511.7046	2955.0747	2998.9995	3003.529	3037.8753	3044.4684	3068.0652	3107.9756	3123.8468	3132.3123	3819.2111
CC1CC(O)CO1	C[C@H]1C[C@@H](O)CO1	
InChI=1S/C5H10O2/c1-4-2-5(6)3-7-4/h4-6H,2-3H2,1H3	InChI=1S/C5H10O2/c1-4-2-5(6)3-7-4/h4-6H,2-3H2,1H3/t4-,5+/m0/s1
