14
gdb 3382	4.73811	2.71453	2.31044	1.8446	58.4	-0.2445	-0.0377	0.2067	617.1312	0.113849	-324.530103	-324.523969	-324.523025	-324.56007	22.571	
O	-0.4472184795	 0.3998602494	 0.5800050831	-0.271409
C	 0.0892197744	 1.1409659097	-0.2115288269	 0.142591
C	 1.2827337569	 1.9955157383	 0.0268491253	-0.085074
C	 1.4767528677	 2.8493894685	 1.243764876	-0.034726
C	 0.9487331642	 2.2068514623	 2.5237411924	-0.246936
C	 1.8904431518	 1.0233843413	 2.1886616417	-0.14715
N	 2.4188491062	 1.7229693198	 0.9529784433	-0.148495
H	-0.3152138429	 1.2498304065	-1.2435346799	 0.084524
H	 1.6586597609	 2.4453937432	-0.8891736033	 0.105378
H	 1.7647387218	 3.8895436886	 1.1202813907	 0.104376
H	 1.2456009405	 2.7572526869	 3.4182358052	 0.113529
H	-0.1210399761	 1.996472924	 2.5619935095	 0.12962
H	 2.7207939429	 0.911907068	 2.8883052075	 0.114393
H	 1.4287063812	 0.0567944535	 1.9966954254	 0.13938
106.7359	206.1194	243.4536	359.7151	387.7577	686.8148	733.5243	775.0347	782.9768	829.189	887.9444	919.791	964.607	1007.8377	1036.2752	1056.7594	1075.9328	1128.9289	1178.7352	1219.0303	1232.5374	1267.3232	1289.3248	1350.9826	1406.4575	1437.8228	1476.4859	1495.8173	1801.2918	2871.8074	3079.9888	3087.0127	3133.3622	3139.9645	3154.5559	3161.8923
O=CC1C2CCN12	O=C[C@H]1[C@H]2CCN12	
InChI=1S/C5H7NO/c7-3-5-4-1-2-6(4)5/h3-5H,1-2H2	InChI=1S/C5H7NO/c7-3-5-4-1-2-6(4)5/h3-5H,1-2H2/t4-,5+,6?/m1/s1
