17
gdb 3134	5.35599	1.96951	1.73741	1.5121	64.04	-0.249	0.0773	0.3263	773.5388	0.149084	-309.684377	-309.677443	-309.676499	-309.715185	26.304	
O	 0.1747169531	 1.3631391877	 0.1622650236	-0.4155
C	 0.068507166	-0.0238470757	-0.1404214133	-0.171846
C	-1.3466922169	-0.5147981813	-0.115836262	 0.351867
C	-2.0290448039	-0.9451137867	 1.1611649508	-0.32787
C	-1.8977504346	-1.9370624043	 0.0382203293	-0.102053
C	-2.9624373608	-1.6634198985	-1.0308144813	-0.219063
C	-2.4130439199	-0.2059072366	-1.1795429295	-0.279901
H	-0.2776134046	 1.5033443962	 1.000982424	 0.279956
H	 0.4971187938	-0.1328194508	-1.1434463742	 0.105676
H	 0.6823499797	-0.6329479322	 0.5444166176	 0.080993
H	-1.3696865207	-1.1161553072	 2.0076022212	 0.107338
H	-3.0056289799	-0.5469181734	 1.4299421463	 0.10427
H	-1.3525699723	-2.8650683695	 0.1668203092	 0.085447
H	-2.8220521642	-2.2527536745	-1.9394768068	 0.104118
H	-4.0023121555	-1.7705614206	-0.7047206883	 0.095848
H	-3.1024240498	 0.6116865956	-0.9470458988	 0.095477
H	-1.9810143795	-0.0230596982	-2.1665065977	 0.105242
91.1314	159.4685	259.3583	297.9328	368.1213	407.0324	433.2904	676.9204	724.8053	783.0285	848.8137	893.456	932.3649	939.3262	953.9877	968.9302	1020.2943	1032.3914	1058.6409	1080.8536	1107.9299	1148.1978	1186.3129	1222.2458	1241.5064	1260.8564	1272.1172	1313.1222	1363.6723	1397.6215	1430.1844	1481.5401	1482.8067	1499.9274	1511.1556	2962.0757	3043.5672	3052.2652	3057.4318	3095.0357	3097.297	3113.4576	3174.4782	3188.5736	3806.9087
OCC12CC1CC2	OC[C@]12C[C@H]1CC2	
InChI=1S/C6H10O/c7-4-6-2-1-5(6)3-6/h5,7H,1-4H2	InChI=1S/C6H10O/c7-4-6-2-1-5(6)3-6/h5,7H,1-4H2/t5-,6+/m1/s1
