15
gdb 996	3.96414	3.23238	1.8133	1.725	63.78	-0.1817	0.0545	0.2363	691.1415	0.12689	-304.72746	-304.720443	-304.719499	-304.758236	25.772	
C	-0.0601780898	 1.4425912413	 0.0153260159	-0.343126
N	-0.0175383036	-0.0033442797	 0.0001586413	 0.003886
C	 0.0164905758	-0.7968871536	-1.1249379731	-0.111217
C	 0.0415869299	-2.1110593009	-0.7263776921	-0.153854
C	 0.0448749741	-2.1233348417	 0.6961246261	-0.221556
C	 0.0114359081	-0.8105283015	 1.1175612714	 0.259273
N	-0.069777967	-0.2255892985	 2.4012980623	-0.608075
H	 0.9411465039	 1.885612181	-0.0568365762	 0.125522
H	-0.6586400853	 1.8015974937	-0.8257243074	 0.133948
H	-0.5198107763	 1.7687825553	 0.9501364046	 0.156425
H	 0.0222617688	-0.3502005828	-2.1064635504	 0.105251
H	 0.0595795313	-2.9692869816	-1.3805342082	 0.087785
H	 0.0697726851	-2.9883980634	 1.34171165	 0.078492
H	-0.437343503	-0.8928776094	 3.0683895332	 0.246
H	 0.8345563981	 0.0839150217	 2.7472677226	 0.241246
101.0524	169.9027	189.3724	270.2239	303.1214	450.7063	617.754	634.536	656.2524	694.7199	741.6526	748.8458	816.7726	833.2725	905.1275	1027.5736	1072.4584	1112.5857	1151.4939	1155.9918	1232.919	1274.9733	1336.9044	1400.1888	1441.4444	1481.9872	1493.0659	1517.4556	1532.4235	1595.7032	1655.9433	3021.3861	3094.2571	3141.1965	3235.8868	3248.2824	3266.2664	3483.4515	3591.2032
CN1C=CC=C1N	Cn1cccc1N	
InChI=1S/C5H8N2/c1-7-4-2-3-5(7)6/h2-4H,6H2,1H3	InChI=1S/C5H8N2/c1-7-4-2-3-5(7)6/h2-4H,6H2,1H3
