12
gdb 4454	3.6869	1.84104	1.23359	4.2061	52.55	-0.1812	0.0372	0.2184	877.0706	0.083785	-451.835525	-451.827995	-451.827051	-451.866952	27.669	
O	 0.1969093975	 1.346004284	-0.0025468514	-0.434781
C	 0.0271859739	 0.0048739681	 0.0098181786	 0.316254
C	-1.0655568477	-0.7782429742	 0.0249505728	 0.165691
O	-2.3807180233	-0.431486695	 0.0838284652	-0.432713
N	-0.6195590515	-2.1186032083	-0.0570684625	-0.403155
C	 0.7712476311	-2.1639571862	-0.0200292482	 0.438712
O	 1.4951173761	-3.1357530454	 0.0395093375	-0.420711
N	 1.1458605389	-0.8198892661	-0.059413401	-0.388818
H	-0.666436361	 1.7506630316	 0.1410128312	 0.312798
H	-2.784660825	-0.5444567612	-0.7872745646	 0.304497
H	-1.160829021	-2.9109038815	 0.2475049402	 0.267192
H	 2.0968455919	-0.5214145456	 0.0729338421	 0.275035
156.6897	218.8382	248.8331	261.6667	295.4878	346.681	357.4276	391.403	490.4986	574.1536	623.5018	643.5964	678.1433	748.8588	853.9026	995.073	1091.381	1190.6463	1235.0825	1269.3894	1297.6568	1354.9934	1411.7503	1510.3395	1792.785	1853.2539	3663.7684	3684.0869	3720.5344	3816.7832
OC1=C(O)NC(=O)N1	Oc1c(O)[nH]c(=O)[nH]1	
InChI=1S/C3H4N2O3/c6-1-2(7)5-3(8)4-1/h6-7H,(H2,4,5,8)	InChI=1S/C3H4N2O3/c6-1-2(7)5-3(8)4-1/h6-7H,(H2,4,5,8)
