14
gdb 1804	3.92809	2.64102	1.87376	2.143	53.51	-0.2463	0.0175	0.2638	692.5005	0.112408	-361.733052	-361.72572	-361.724776	-361.764215	26.699	
C	-0.2033770619	 1.5334337444	-0.5272644141	-0.462852
C	-0.0705921933	 0.1209596472	-0.0181595126	 0.309526
C	 0.9203762125	-0.8104574121	-0.5909665262	-0.206271
O	 1.1395409531	-0.2095676921	 0.6875647852	-0.279996
C	-1.3400566355	-0.4770311737	 0.5694150607	 0.338551
N	-1.1172076942	-1.3725660085	 1.5681938999	-0.529451
O	-2.438369507	-0.1783268235	 0.1410304121	-0.365622
H	 0.7200921423	 1.8559865973	-1.0133688412	 0.121142
H	-1.0321684227	 1.5884895387	-1.2360835141	 0.153953
H	-0.4223160521	 2.2194211062	 0.2968335161	 0.133819
H	 0.7279902725	-1.8814759238	-0.576740858	 0.125767
H	 1.5733423468	-0.4585420899	-1.3880283801	 0.124863
H	-0.1997686891	-1.4259066894	 1.9799093178	 0.273481
H	-1.9123936913	-1.751537931	 2.0547895044	 0.263087
80.1292	172.8199	244.2561	285.1272	335.7613	356.8688	393.6459	506.3196	510.2694	631.3464	694.0722	769.0754	821.4387	887.7314	936.909	1020.4893	1096.6087	1102.3161	1138.0845	1169.8069	1221.6449	1362.5775	1394.2939	1410.7115	1477.741	1495.558	1519.4885	1593.1635	1800.4314	3051.2962	3089.8667	3120.6368	3144.6903	3182.1992	3592.8691	3731.3605
CC1(CO1)C(N)=O	C[C@]1(CO1)C(=O)N	
InChI=1S/C4H7NO2/c1-4(2-7-4)3(5)6/h2H2,1H3,(H2,5,6)	InChI=1S/C4H7NO2/c1-4(2-7-4)3(5)6/h2H2,1H3,(H2,5,6)/t4-/m0/s1
