15
gdb 3541	5.90176	2.94447	2.55915	2.1197	59.49	-0.226	0.0786	0.3046	576.8826	0.127512	-308.459859	-308.454847	-308.453903	-308.488339	20.642	
C	-0.0285058724	 1.5837289519	-0.0089789934	-0.245786
C	 1.5082015778	 1.8689951493	-0.0226979615	-0.245787
C	 2.0488202086	 0.4443154191	 0.0126944634	-0.02195
C	 1.1429772208	-0.4851854355	-0.8486504492	 0.056047
O	 1.3602663086	-1.6116285807	 0.069630923	-0.318774
C	 1.1501040899	-0.4383420853	 0.929029499	 0.056046
C	-0.0211341802	 0.0600575254	 0.0311221006	-0.021952
H	-0.5274297878	 2.0173165744	 0.8632385623	 0.103858
H	-0.5345675888	 1.9709391206	-0.8987273865	 0.103857
H	 1.8261513118	 2.4091038199	-0.9198474811	 0.103857
H	 1.833265032	 2.4556079026	 0.842114998	 0.103857
H	 3.1223186663	 0.2587199698	 0.0132819234	 0.076537
H	 1.170874412	-0.6868391546	-1.9204724189	 0.086826
H	 1.1866268379	-0.5832786889	 2.0097255705	 0.086826
H	-0.9563389265	-0.4984185981	 0.0495868705	 0.076537
231.8124	358.8941	492.0344	661.269	715.5229	744.0812	771.8835	822.4121	887.4884	896.8345	897.5815	916.3533	965.1161	973.1798	978.7254	1031.0236	1079.1662	1091.3032	1131.7006	1171.1164	1172.4845	1230.1867	1240.6991	1247.4737	1251.7143	1270.7405	1279.8008	1326.3954	1377.8513	1487.8084	1510.0564	3045.8315	3055.22	3078.6909	3098.1964	3103.9257	3106.6669	3131.811	3138.2664
C1CC2C3OC2C13	C1C[C@@H]2[C@H]3O[C@@H]2[C@@H]13	
InChI=1S/C6H8O/c1-2-4-5-3(1)6(4)7-5/h3-6H,1-2H2	InChI=1S/C6H8O/c1-2-4-5-3(1)6(4)7-5/h3-6H,1-2H2/t3-,4+,5-,6+
