18
gdb 1674	4.11559	1.64088	1.48703	3.3976	64.3	-0.2397	0.0377	0.2774	917.7567	0.158399	-327.024699	-327.015444	-327.0145	-327.059628	31.698	
C	-0.0751608945	 1.5029753679	 0.2446005232	-0.395829
C	-0.1808033954	-0.0212241466	 0.1472141199	-0.154199
C	-1.5789258586	-0.540953669	-0.2595430426	-0.072063
C	-1.986200711	-0.1177770233	-1.6777670961	-0.387715
C	-1.5543704426	-2.0704247459	-0.1820714373	 0.40949
N	-2.2505017272	-2.6198516216	 0.8560811016	-0.526263
O	-0.9350097967	-2.7509756204	-0.9785069132	-0.378156
H	 0.9209671841	 1.7983898375	 0.5886676948	 0.11596
H	-0.2448146278	 1.9894154135	-0.7204242537	 0.12237
H	-0.804638585	 1.9090267282	 0.9549991776	 0.109869
H	 0.5483234859	-0.4098115098	-0.5724564231	 0.120842
H	 0.0846118511	-0.4594885174	 1.1177331378	 0.095096
H	-2.3135209855	-0.1493873673	 0.4578399677	 0.057762
H	-2.9940149663	-0.4703940883	-1.9190290867	 0.114128
H	-1.9781589921	 0.9695252137	-1.7876719551	 0.111382
H	-1.2964046133	-0.5547661403	-2.4043831893	 0.142658
H	-2.7767393046	-2.0666550527	 1.5079687989	 0.256433
H	-2.2435865606	-3.6215196884	 0.9601504555	 0.258234
20.3401	82.4719	94.1574	184.87	213.8863	224.2059	281.7871	316.9165	352.7786	484.4268	591.6924	621.5823	747.7205	781.355	805.0756	874.9482	968.6083	992.616	1037.1461	1059.585	1122.2579	1131.9631	1188.6889	1260.7697	1292.3685	1346.5879	1363.3239	1400.6717	1402.8934	1412.5766	1486.462	1490.9923	1498.8665	1506.4111	1511.0126	1614.7531	1791.1074	3003.8	3025.4257	3031.7999	3044.8387	3070.1278	3098.512	3106.7334	3113.0325	3130.9666	3602.5518	3743.5876
CCC(C)C(N)=O	CC[C@@H](C)C(=O)N	
InChI=1S/C5H11NO/c1-3-4(2)5(6)7/h4H,3H2,1-2H3,(H2,6,7)	InChI=1S/C5H11NO/c1-3-4(2)5(6)7/h4H,3H2,1-2H3,(H2,6,7)/t4-/m1/s1
