13
gdb 3210	3.60275	3.42134	2.11899	4.2957	55.15	-0.2488	-0.0014	0.2474	620.7234	0.102267	-340.578657	-340.572451	-340.571506	-340.608586	23.075	
O	 0.0825810745	 1.5069888353	-0.0962156427	-0.421994
C	-0.004171261	 0.1072685223	-0.038355049	 0.002605
C	-1.3644575209	-0.6000033127	-0.0259453915	-0.069201
C	-2.0882494761	-0.3887300229	-1.2879748556	-0.239146
N	-0.9943805197	-1.403263293	-1.2827247741	-0.138887
C	 0.2173263234	-0.6106560324	-1.375914876	 0.356557
N	 1.0740945789	-0.6482686691	-2.2908188087	-0.501713
H	 0.0387063781	 1.8595268898	 0.7985201559	 0.292541
H	 0.6584680343	-0.3156795965	 0.7303982926	 0.101299
H	-1.8024903093	-1.1021667608	 0.8288787155	 0.104933
H	-3.0695104731	-0.8393216092	-1.3914450748	 0.135554
H	-1.939229824	 0.5295943178	-1.8489130148	 0.143332
H	 1.8253611249	 0.0173501615	-2.0977865269	 0.23412
130.5458	223.1212	266.4565	276.4004	482.3724	545.4577	664.7812	675.98	755.5586	830.7657	838.3426	906.9919	955.9081	970.5394	1017.5948	1053.7689	1113.7631	1131.9289	1151.8696	1184.2646	1214.7699	1283.6181	1298.2224	1365.4119	1422.3546	1502.6605	1812.4885	3007.0461	3124.488	3184.7435	3218.1915	3464.8127	3814.9584
OC1C2CN2C1=N	O[C@H]1[C@H]2CN2[C]1[NH]	
InChI=1S/C4H6N2O/c5-4-3(7)2-1-6(2)4/h2-3,5,7H,1H2	InChI=1S/C4H6N2O/c5-4-3(7)2-1-6(2)4/h2-3,5,7H,1H2/t2-,3+,6?/m1/s1
