17
gdb 1818	4.05904	2.15603	1.98902	1.5465	59.77	-0.262	0.0839	0.3459	748.4251	0.146283	-346.839595	-346.831766	-346.830822	-346.870906	29.424	
C	-0.095927889	 1.4747544618	-0.1109303566	-0.41699
C	 0.041102017	-0.047302036	 0.0589459018	 0.326797
C	 0.7509559013	-0.4019635466	 1.3655290611	-0.399075
O	-1.2475753054	-0.6482104992	 0.1126627753	-0.469444
C	 0.80796839	-0.6177274997	-1.1335542648	 0.069455
C	 0.5835718841	-1.9821392425	-1.6169048775	-0.189339
O	 0.00683123	-0.8536749592	-2.2984534778	-0.260156
H	 0.8813984123	 1.969269678	-0.1073025352	 0.109284
H	-0.5909847247	 1.7095818197	-1.0589199641	 0.122159
H	-0.6976750268	 1.8856838992	 0.7039688956	 0.122785
H	 0.1963093126	 0.0081932052	 2.2141564308	 0.126725
H	 0.8095404783	-1.4869490891	 1.4858899215	 0.121969
H	 1.7649428521	 0.0093271784	 1.3859810974	 0.112135
H	-1.587216311	-0.6223687217	-0.7927003811	 0.285677
H	 1.7688214865	-0.1453896616	-1.3422250833	 0.091111
H	 1.3687815699	-2.4970457081	-2.1668809828	 0.117821
H	-0.1311047072	-2.6138779985	-1.0961795503	 0.129085
109.4126	204.8565	219.2998	246.6993	283.7224	321.2422	376.6844	396.8392	489.6031	523.9997	575.2557	729.7227	840.8939	881.3859	929.8589	938.9339	975.4033	1000.307	1022.5856	1100.6852	1150.5918	1167.1511	1175.8875	1208.7507	1251.185	1288.1385	1375.7862	1396.8392	1419.6495	1432.1268	1476.8315	1485.5475	1499.8242	1507.9626	1516.069	3033.0086	3043.2975	3098.3502	3101.8864	3107.4309	3115.788	3121.2465	3123.0142	3196.615	3750.5238
CC(C)(O)C1CO1	CC(C)(O)[C@H]1CO1	
InChI=1S/C5H10O2/c1-5(2,6)4-3-7-4/h4,6H,3H2,1-2H3	InChI=1S/C5H10O2/c1-5(2,6)4-3-7-4/h4,6H,3H2,1-2H3/t4-/m1/s1
