14
gdb 3425	4.8097	2.90049	2.0779	3.8644	57.1	-0.2369	0.0309	0.2679	628.5342	0.116276	-324.610004	-324.604264	-324.60332	-324.639432	22.086	
O	 0.0018944933	-0.0170032572	-0.1158140471	-0.385206
C	 0.0241576808	 1.1888617158	-0.0038181436	 0.414508
N	-1.0705825527	 1.9994512745	 0.1987308092	-0.316997
C	-0.8303740317	 3.42359925	 0.0364718248	-0.180005
C	 0.6940736734	 3.5160888638	 0.0119860012	-0.038356
C	 1.4251783718	 2.9488138211	 1.1910881506	-0.280318
C	 1.2245756572	 2.0990295925	-0.0487988979	-0.144261
H	-1.9931279985	 1.5969288358	 0.2296537561	 0.25076
H	-1.2562105735	 3.8015846652	-0.9035383192	 0.110443
H	-1.2688845925	 4.0026224451	 0.8590945513	 0.113002
H	 1.1459561892	 4.3174858797	-0.5585615656	 0.098655
H	 2.4310325866	 3.3109283307	 1.3721097113	 0.12175
H	 0.867890444	 2.6920254849	 2.0865730041	 0.126164
H	 2.0738320426	 1.7869518481	-0.6409539253	 0.109858
135.3017	250.617	362.6031	451.3412	497.5901	606.17	720.1985	766.427	784.787	826.6279	866.7464	915.7743	982.4466	1000.5622	1041.9326	1070.1133	1088.7699	1102.0202	1123.2174	1195.6323	1221.9555	1251.8057	1315.706	1341.1118	1385.7895	1444.9619	1487.5061	1528.8631	1829.98	3001.1108	3036.7622	3129.7094	3191.615	3211.1014	3221.5978	3650.6774
O=C1NCC2CC12	O=C1NC[C@H]2C[C@@H]12	
InChI=1S/C5H7NO/c7-5-4-1-3(4)2-6-5/h3-4H,1-2H2,(H,6,7)	InChI=1S/C5H7NO/c7-5-4-1-3(4)2-6-5/h3-4H,1-2H2,(H,6,7)/t3-,4-/m1/s1
