17
gdb 2863	5.93768	1.44492	1.31469	1.0188	61.45	-0.2437	0.0813	0.325	948.347	0.146852	-346.816694	-346.808471	-346.807527	-346.849494	28.758	
C	 0.0550316998	 1.177963933	-0.4451564477	-0.230556
O	-0.1508895752	 0.1639219574	 0.5171037257	-0.236772
C	-1.3579937491	-0.51062641	 0.3432385129	 0.113006
C	-1.4466508955	-1.6318363004	-0.662455693	-0.313175
C	-1.4323147752	-1.9273418176	 0.8260146577	-0.030439
C	-0.2274260343	-2.5893626795	 1.4401079091	-0.091373
O	-0.32219605	-3.98869138	 1.1947271554	-0.42355
H	 1.0168206057	 1.6451916552	-0.2208204837	 0.125817
H	 0.0791570904	 0.7706601251	-1.4660484915	 0.110001
H	-0.732676836	 1.9454077134	-0.3982518145	 0.105635
H	-2.238448714	 0.1200468746	 0.4803940195	 0.083066
H	-2.3647083307	-1.7738276458	-1.2216545816	 0.110471
H	-0.539199799	-1.871229445	-1.2069988965	 0.120136
H	-2.3762377502	-2.230867943	 1.2694496587	 0.091511
H	 0.6864933637	-2.1621522811	 1.0063171261	 0.096569
H	-0.2043976784	-2.3800960285	 2.5215138731	 0.086299
H	 0.422251178	-4.4139429179	 1.6306054504	 0.283356
63.9741	114.7295	140.6671	196.1653	242.7329	264.9678	326.9348	390.8366	486.0966	610.8603	773.2453	829.7092	880.2986	922.4351	1009.1288	1023.337	1051.1928	1070.0556	1103.8062	1133.8947	1163.9148	1175.1307	1183.9373	1222.6862	1253.2315	1262.7887	1276.3444	1371.4389	1409.8005	1466.3768	1476.3856	1485.4978	1493.5602	1509.5538	1523.2403	2974.5708	2982.2836	3029.1738	3033.7751	3080.471	3117.4769	3133.3993	3152.2895	3222.0357	3826.0489
COC1CC1CO	CO[C@H]1C[C@H]1CO	
InChI=1S/C5H10O2/c1-7-5-2-4(5)3-6/h4-6H,2-3H2,1H3	InChI=1S/C5H10O2/c1-7-5-2-4(5)3-6/h4-6H,2-3H2,1H3/t4-,5-/m0/s1
