13
gdb 362	9.16916	2.08247	1.78086	4.3706	47.75	-0.2433	0.0274	0.2707	681.2313	0.106577	-323.644468	-323.636751	-323.635807	-323.67712	24.645	
C	 0.0184228492	 1.4359883778	-0.064039481	-0.331444
N	-0.1138675005	-0.0020773728	-0.1898744912	-0.314629
C	-1.2286637805	-0.6737330887	 0.2254245126	 0.409641
O	-2.1961552089	-0.1348630599	 0.7208769818	-0.351734
C	-1.1226999382	-2.1972859198	 0.0705825871	-0.178579
O	-2.3971041633	-2.7063705825	-0.2377780244	-0.390014
H	 0.9210641357	 1.7041316826	 0.4958675739	 0.123446
H	 0.0557530372	 1.925066025	-1.0442544669	 0.126347
H	-0.859542427	 1.7943254715	 0.4746794281	 0.173115
H	 0.6132009041	-0.5147041725	-0.6601230496	 0.243034
H	-0.3791930326	-2.4535642075	-0.7033659763	 0.081933
H	-0.7413164995	-2.5857308924	 1.0285444179	 0.115786
H	-2.3999873758	-3.6470292307	-0.0415052521	 0.293098
33.2628	82.9002	138.2708	161.4634	239.5452	326.4118	429.0563	446.5055	601.2868	722.5646	887.1444	1003.9184	1058.9222	1135.1085	1153.8884	1170.0921	1224.4459	1228.7563	1297.9626	1437.855	1455.8692	1492.1614	1496.931	1501.1788	1560.2018	1804.8708	2952.1768	2991.4901	3026.2183	3077.9733	3153.0555	3647.9722	3842.5575
CNC(=O)CO	CNC(=O)CO	
InChI=1S/C3H7NO2/c1-4-3(6)2-5/h5H,2H2,1H3,(H,4,6)	InChI=1S/C3H7NO2/c1-4-3(6)2-5/h5H,2H2,1H3,(H,4,6)
