12
gdb 511	21.91055	1.33512	1.27835	1.2338	67.	-0.2405	-0.0092	0.2313	897.8437	0.094569	-232.050342	-232.043419	-232.042475	-232.080639	24.101	
C	-0.0408455706	 1.5555397287	 0.049147768	-0.367575
C	 0.0140658902	 0.0170934683	-0.0194828038	-0.34383
C	 0.6908770897	-0.4790501032	-1.2083037479	 0.421051
C	 1.2565856478	-0.8770089088	-2.20172471	-0.308997
C	 1.8920481918	-1.3244349864	-3.3189217831	 0.297311
C	 2.4551894477	-1.7234110178	-4.3100618631	-0.552601
H	 0.966256977	 1.9801818741	 0.0572225743	 0.133992
H	-0.5741379484	 1.9640090216	-0.8130551621	 0.133989
H	-0.5582125079	 1.8727503325	 0.9590036557	 0.119768
H	 0.5213506879	-0.3741411688	 0.8720677918	 0.139021
H	-1.0050230277	-0.3901905218	 0.0097070288	 0.139014
H	 2.9507207725	-2.0725524485	-5.1813723885	 0.188857
102.2984	133.4077	237.4555	242.9096	363.631	469.5252	531.7744	536.1524	588.5753	593.8867	676.3567	786.3214	957.7974	1076.5813	1102.3006	1178.8442	1283.6018	1348.8378	1410.9063	1469.1494	1495.1676	1504.9332	2181.6996	2364.5875	3019.0654	3047.5615	3048.2831	3123.214	3129.0571	3507.2035
CCC#CC#C	CCC#CC#C	
InChI=1S/C6H6/c1-3-5-6-4-2/h1H,4H2,2H3	InChI=1S/C6H6/c1-3-5-6-4-2/h1H,4H2,2H3
