15
gdb 2355	5.55519	2.10978	1.59691	3.6859	58.21	-0.2335	0.056	0.2894	762.123	0.126756	-341.859618	-341.852585	-341.851641	-341.890833	25.235	
N	-0.0904599213	 1.3399602324	 0.062485767	-0.556812
C	-0.0010483306	-0.0465699128	 0.1129255888	 0.406587
O	 1.0539715458	-0.6506707798	 0.0447854515	-0.393602
N	-1.2148437183	-0.6824691683	 0.2164844085	-0.097639
C	-2.5299050176	-0.2552682998	-0.2931691343	-0.175054
C	-2.8897423117	-1.7516782754	-0.5042935745	-0.238111
C	-1.4205719764	-2.0956871067	-0.1266912967	-0.152498
H	 0.7971869291	 1.7909179349	 0.2251710271	 0.259395
H	-0.8677736065	 1.7753062334	 0.5362331156	 0.250255
H	-3.1437054709	 0.2887832197	 0.4342299492	 0.105503
H	-2.4667878491	 0.3365585899	-1.2141626023	 0.118716
H	-3.6302991084	-2.1300396504	 0.2013197791	 0.116359
H	-3.1911011358	-2.021289189	-1.5165021994	 0.117185
H	-0.7889411491	-2.4249796283	-0.9580726187	 0.123594
H	-1.2824383193	-2.7837931197	 0.712212689	 0.11612
96.8253	121.371	189.3774	204.2725	416.046	437.9737	551.3006	566.2976	682.6605	760.325	781.9848	847.6614	892.2561	940.4449	976.5576	1078.5638	1138.2843	1141.3165	1180.0734	1186.9199	1204.1096	1232.6338	1268.4027	1295.9545	1343.0161	1432.8006	1491.4692	1513.8144	1537.0503	1623.0517	1792.4679	3018.5263	3047.397	3058.9842	3088.4353	3092.6988	3146.3445	3573.0963	3688.5811
NC(=O)N1CCC1	NC(=O)N1CCC1	
InChI=1S/C4H8N2O/c5-4(7)6-2-1-3-6/h1-3H2,(H2,5,7)	InChI=1S/C4H8N2O/c5-4(7)6-2-1-3-6/h1-3H2,(H2,5,7)
