13
gdb 3662	3.75341	3.31973	1.78425	3.9006	56.34	-0.2097	0.0145	0.2242	675.4115	0.102298	-340.636727	-340.629883	-340.628939	-340.668109	24.208	
C	-0.0318672079	 1.5432534478	 0.0512688806	-0.525139
C	-0.0091765761	 0.0468658573	 0.0126581181	 0.082281
C	-0.0244636086	-0.7801296461	-1.0812330985	 0.395634
N	-0.1188725891	-0.5298510236	-2.4317460108	-0.592172
O	-0.003944598	-2.0665208314	-0.7135741367	-0.212441
N	 0.0222567074	-2.1380780449	 0.6974634226	-0.169469
C	 0.0216663442	-0.8857114892	 1.0820496647	-0.02141
H	 0.945679788	 1.9880161114	-0.176363043	 0.125988
H	-0.7529689158	 1.9542685728	-0.6645546155	 0.129372
H	-0.3224317699	 1.9001778376	 1.0431553325	 0.134958
H	 0.3079512527	 0.335406536	-2.7283421503	 0.263956
H	 0.1539126931	-1.311296757	-3.0114478467	 0.266892
H	 0.0375202099	-0.6720678608	 2.1432443331	 0.121551
35.3436	217.5739	232.7496	275.2173	303.0466	433.8607	595.7068	630.9148	647.414	725.8418	750.5272	895.2466	916.6313	943.6345	1000.9222	1065.4118	1070.4871	1210.763	1253.1943	1341.3077	1410.0115	1435.1683	1488.2077	1502.1118	1543.905	1639.1266	1688.0574	3015.6787	3066.2494	3108.2531	3225.7885	3566.5351	3668.7413
CC1=C(N)ON=C1	Cc1c(N)onc1	
InChI=1S/C4H6N2O/c1-3-2-6-7-4(3)5/h2H,5H2,1H3	InChI=1S/C4H6N2O/c1-3-2-6-7-4(3)5/h2H,5H2,1H3
