15
gdb 2768	4.18575	2.18268	1.61203	1.3071	57.6	-0.2491	-0.0339	0.2153	768.2383	0.12377	-345.642285	-345.634995	-345.634051	-345.674429	25.238	
C	-0.3616757497	 1.4680210803	 0.1001859591	-0.409431
C	 0.1695451291	 0.0518043797	 0.0107707739	 0.150064
O	 1.4306189932	-0.0392001461	-0.6903560198	-0.282814
C	 1.9834334628	-0.8909864541	 0.3270657842	-0.090433
C	 0.7740504858	-0.6648771016	 1.2654411082	-0.158928
C	 1.0670967736	 0.2165065319	 2.4500966482	 0.163201
O	 0.6014805813	 0.0579165345	 3.5494167677	-0.252998
H	 0.3673039974	 2.1474367138	 0.5486105855	 0.126189
H	-0.5940284608	 1.8363272314	-0.9037971412	 0.134686
H	-1.2812452254	 1.4934862527	 0.694292285	 0.130237
H	-0.5795013673	-0.5950482059	-0.4683029473	 0.085951
H	 2.09455127	-1.9292140503	-0.0097652572	 0.110839
H	 2.9541369973	-0.5258750574	 0.6849948462	 0.110643
H	 0.233546821	-1.5492568081	 1.6032223974	 0.09977
H	 1.7768334218	 1.0509342794	 2.2441485099	 0.083025
60.5529	67.781	213.8278	252.1617	322.8972	355.703	456.4077	485.121	736.4882	855.1325	871.4993	887.7106	983.5355	988.4036	1038.0734	1080.9473	1099.3897	1147.7047	1163.3033	1182.574	1227.1746	1277.9785	1319.6743	1358.8159	1388.7426	1411.5399	1433.996	1480.4888	1502.2464	1522.9489	1828.5489	2863.9216	2994.6051	3013.9428	3042.4526	3055.8409	3111.9527	3116.9059	3127.6458
CC1OCC1C=O	C[C@H]1OC[C@H]1C=O	
InChI=1S/C5H8O2/c1-4-5(2-6)3-7-4/h2,4-5H,3H2,1H3	InChI=1S/C5H8O2/c1-4-5(2-6)3-7-4/h2,4-5H,3H2,1H3/t4-,5-/m1/s1
