8
gdb 170	9.8405	9.63861	4.86926	2.8629	35.74	-0.2677	-0.0138	0.2538	272.9362	0.058014	-245.994065	-245.9905	-245.989556	-246.020256	12.232	
O	-0.0153626546	 1.2820529562	 0.0091561868	-0.153978
C	 1.2546968913	 1.7087536795	-0.000692087	 0.079569
C	 2.1108496145	 0.6554640741	-0.0146905616	-0.246806
C	 1.2351839433	-0.4642810069	-0.012316408	 0.036662
N	-0.0259346659	-0.1093839611	 0.001629622	-0.128975
H	 1.3905401672	 2.7790367916	 0.0038419032	 0.153268
H	 3.1873453767	 0.6696965139	-0.024970442	 0.124978
H	 1.4816541275	-1.5165741371	-0.0204073509	 0.135281
611.1388	651.99	793.5824	871.6802	896.2005	917.5345	921.9335	934.7261	1049.2434	1128.3601	1162.3331	1250.8281	1403.5821	1462.6737	1602.1408	3247.27	3266.1412	3293.6885
O1C=CC=N1	o1cccn1	
InChI=1S/C3H3NO/c1-2-4-5-3-1/h1-3H	InChI=1S/C3H3NO/c1-2-4-5-3-1/h1-3H
