15
gdb 4937	6.7843	1.18949	1.02904	3.0367	64.42	-0.1872	0.0362	0.2234	1087.2555	0.119483	-399.816144	-399.808325	-399.807381	-399.848369	28.748	
N	 0.2426954324	 1.3454037627	 0.3469313738	-0.59217
C	-0.0572507416	 0.0135842946	 0.1013547272	 0.401972
C	-1.1770696528	-0.7461003234	 0.2700096768	-0.399638
C	-0.7957832034	-2.0899480681	-0.0856435409	 0.234974
C	-1.6598028831	-3.3156505642	-0.0748434009	-0.16624
O	-1.1211151831	-4.3783488033	-0.8454943725	-0.411165
C	 0.5107972916	-2.0330968035	-0.4450870353	-0.130259
O	 0.9769130713	-0.7404213378	-0.3341196648	-0.179613
H	 0.9629044318	 1.70267538	-0.2678546485	 0.255996
H	-0.572807427	 1.9415749981	 0.3307246795	 0.255931
H	-2.145526991	-0.4048189754	 0.5999262708	 0.094584
H	-1.7552978673	-3.7132554732	 0.9429553856	 0.125764
H	-2.6792550824	-3.05377921	-0.4032653516	 0.092966
H	-0.9784680171	-4.0356360168	-1.7345006555	 0.279821
H	 1.2279386318	-2.7641568698	-0.7726115737	 0.137077
74.2308	164.1478	187.0287	203.9137	308.7856	361.8308	379.9001	462.3761	612.207	643.5465	675.7521	680.3545	729.9423	742.8521	768.045	962.9415	984.6846	1007.7796	1068.4036	1089.1037	1143.5804	1185.727	1208.5386	1246.087	1309.1948	1382.5378	1418.1172	1462.4873	1503.9075	1602.7049	1633.6768	1671.6349	2966.4717	3045.9312	3254.1019	3301.5808	3548.4571	3650.102	3804.4087
NC1=CC(CO)=CO1	Nc1cc(CO)co1	
InChI=1S/C5H7NO2/c6-5-1-4(2-7)3-8-5/h1,3,7H,2,6H2	InChI=1S/C5H7NO2/c6-5-1-4(2-7)3-8-5/h1,3,7H,2,6H2
