13
gdb 1709	4.67676	2.16969	1.92142	2.4548	54.25	-0.2443	0.0099	0.2541	688.1963	0.101991	-340.610697	-340.603891	-340.602947	-340.641384	24.492	
O	-0.0426272488	 1.4459021864	-0.0565385459	-0.451867
C	 0.0108562207	 0.0410496222	-0.0001080197	 0.271822
C	 0.1789861366	-0.5667583142	 1.4309759039	-0.212321
N	-1.2863093157	-0.7502802619	 1.5049065607	-0.309503
C	-1.4292303001	-0.5401351011	 0.0469257681	-0.190898
C	 0.9099925093	-0.4971329098	-1.0272422019	 0.222889
N	 1.6416112401	-0.9083950124	-1.8223716166	-0.335889
H	 0.8490719924	 1.7946895966	 0.0584151287	 0.294441
H	 0.7720768078	-1.4896396023	 1.428526899	 0.11499
H	 0.5883965987	 0.1286969369	 2.1716570544	 0.116423
H	-1.5838259673	-1.659975293	 1.8353891603	 0.229242
H	-2.1983672806	 0.1836236319	-0.237426375	 0.133381
H	-1.535802713	-1.4503057696	-0.5544643859	 0.11729
107.6053	181.8445	196.7671	302.1165	373.9829	391.0234	532.8265	565.4269	620.0576	688.2309	907.018	911.8842	929.0151	998.6312	1014.7179	1047.232	1125.2358	1139.5985	1185.9448	1258.2158	1272.8765	1338.4996	1373.9564	1383.2221	1488.6158	1512.5719	2349.8792	3018.3088	3033.6346	3073.4299	3094.7563	3552.4486	3799.4161
OC1(CNC1)C#N	OC1(CNC1)C#N	
InChI=1S/C4H6N2O/c5-1-4(7)2-6-3-4/h6-7H,2-3H2	InChI=1S/C4H6N2O/c5-1-4(7)2-6-3-4/h6-7H,2-3H2
