16
gdb 3986	3.91014	1.05553	1.00018	3.0391	66.7	-0.2593	-0.0074	0.2519	1203.2381	0.128105	-417.012895	-417.003688	-417.002743	-417.048094	31.279	
C	 0.9698149146	 0.6857666307	 0.2215998931	-0.486769
C	-0.2155798734	-0.2043348881	-0.0134007485	 0.35251
C	-0.9463307887	-0.7742177203	 1.1763069261	-0.170887
O	-0.0779092757	-1.5449508399	 2.0157219559	-0.182824
C	 0.1821277041	-2.8050596264	 1.6019571228	 0.128745
N	 1.0058418101	-3.5152905964	 2.2405181418	-0.440267
N	-0.6939177559	-0.5456249418	-1.1492964066	-0.157873
O	-0.0033443304	 0.0375752365	-2.2149947593	-0.389319
H	 1.677253161	 0.6181877115	-0.6057184089	 0.154576
H	 0.6502900678	 1.732263485	 0.3007891234	 0.143382
H	 1.4630893595	 0.4112082945	 1.1567322766	 0.15275
H	-1.3138078645	 0.0288426695	 1.8227368229	 0.128895
H	-1.7989048931	-1.3689391189	 0.8328256821	 0.127413
H	-0.3873790873	-3.0996498492	 0.7107511807	 0.099982
H	 1.0687562714	-4.4381716947	 1.8155567405	 0.229918
H	-0.4529648595	-0.3366745121	-2.9803215626	 0.309766
52.1537	63.5123	80.8558	104.7525	218.5302	286.5902	307.9451	376.0202	391.0817	433.4315	535.4467	624.974	684.9201	817.4872	826.6692	931.5416	976.0515	996.967	1044.6657	1053.6784	1090.3911	1119.4859	1237.1004	1278.4362	1322.5919	1384.1281	1401.0921	1407.627	1425.4084	1479.0616	1486.913	1490.9268	1732.9264	1747.3544	3035.6137	3038.646	3049.1612	3100.8141	3109.6096	3153.4054	3517.0234	3816.5116
CC(COC=N)=NO	CC(=NO)CO[CH][NH]	
InChI=1S/C4H8N2O2/c1-4(6-7)2-8-3-5/h3,5,7H,2H2,1H3	InChI=1S/C4H8N2O2/c1-4(6-7)2-8-3-5/h3,5,7H,2H2,1H3
