19
gdb 2856	6.20363	1.27572	1.17202	1.3906	68.23	-0.2571	0.0792	0.3363	1062.5686	0.17088	-310.902465	-310.89399	-310.893045	-310.935426	30.41	
C	-0.2845757093	 1.5435723953	 0.2260054221	-0.371992
C	 0.1697012992	 0.1165092479	-0.1041095805	-0.196135
C	 0.8665876856	-0.5480961201	 1.0680695677	 0.008771
C	 0.0876134435	-1.2871223476	 2.1300128406	-0.282833
C	 1.0255648186	-2.0445772938	 1.2212798168	 0.000546
C	 0.4946279364	-3.0329315696	 0.2171074051	-0.097039
O	 0.3093766992	-4.2758176575	 0.8860400252	-0.42063
H	 0.5675136078	 2.1745715824	 0.5022063634	 0.113156
H	-0.7819385455	 2.0113315355	-0.6294726606	 0.108483
H	-0.9840792258	 1.546749246	 1.0683788607	 0.119088
H	-0.7003728393	-0.4750942384	-0.4104177883	 0.094791
H	 0.8443643509	 0.1402518693	-0.9703602291	 0.09459
H	 1.71524125	 0.0265605727	 1.4344998289	 0.078614
H	 0.3560926942	-1.1619545553	 3.1730661321	 0.108326
H	-0.9766312844	-1.4241015039	 1.9601133729	 0.108287
H	 1.959565377	-2.3726188171	 1.6698886045	 0.087053
H	-0.4530593295	-2.6743224718	-0.2122920293	 0.080704
H	 1.2090940437	-3.1403790468	-0.6156221137	 0.083325
H	 0.0466377478	-4.9286957472	 0.2303576116	 0.282896
70.0145	102.9796	137.0652	209.0283	247.5064	265.7757	310.9995	359.2009	441.6073	572.3466	756.8887	797.3784	819.1238	871.8394	907.2994	956.9839	981.3594	1036.6329	1055.0291	1069.1922	1071.1242	1117.8452	1145.0318	1175.2762	1201.6781	1239.1457	1257.716	1283.9125	1299.5801	1343.1721	1388.4058	1409.3079	1429.0999	1471.86	1486.7144	1497.7377	1498.5275	1508.2098	1522.033	2962.6967	2997.3915	3017.9987	3031.4171	3059.3284	3099.0114	3104.8661	3120.1734	3123.8649	3143.4983	3209.0668	3823.6679
CCC1CC1CO	CC[C@H]1C[C@H]1CO	
InChI=1S/C6H12O/c1-2-5-3-6(5)4-7/h5-7H,2-4H2,1H3	InChI=1S/C6H12O/c1-2-5-3-6(5)4-7/h5-7H,2-4H2,1H3/t5-,6-/m0/s1
