12
gdb 3794	8.01989	2.08471	1.67573	1.8419	51.81	-0.2306	-0.0091	0.2215	701.4606	0.091707	-356.69264	-356.686363	-356.685419	-356.722954	21.761	
C	 0.0252010588	 1.4302652702	 0.0661304369	-0.324265
N	-0.0920327558	-0.0068853989	-0.1023723878	-0.370589
C	 0.5884378108	-0.6416911785	-1.0913545489	 0.463084
N	 1.1860902298	-0.0207946967	-2.0883807892	-0.229405
O	 1.6854249083	-1.0974830169	-2.863517418	-0.162086
C	 1.3363024627	-2.2060303077	-2.223205538	 0.1207
N	 0.666358713	-2.0243409796	-1.1324108817	-0.334978
H	 1.0414998642	 1.7464143953	 0.3382058407	 0.129861
H	-0.2419064131	 1.9284032193	-0.8693636422	 0.158187
H	-0.6698414624	 1.7525228367	 0.8437805519	 0.128669
H	-0.2445095731	-0.5699050462	 0.7184968039	 0.258921
H	 1.6381058768	-3.1453912369	-2.6642915576	 0.161901
124.6793	132.906	204.0881	338.7661	428.947	508.5504	604.9529	729.6271	773.5502	910.1431	911.3707	969.6727	1002.7901	1115.1242	1153.9853	1168.0983	1184.9357	1301.7439	1341.731	1457.3491	1481.4418	1492.6638	1517.5926	1598.977	1650.373	3012.6643	3094.1699	3137.3481	3259.3693	3647.1011
CNC1=NOC=N1	CNc1nocn1	
InChI=1S/C3H5N3O/c1-4-3-5-2-7-6-3/h2H,1H3,(H,4,6)	InChI=1S/C3H5N3O/c1-4-3-5-2-7-6-3/h2H,1H3,(H,4,6)
