16
gdb 1865	4.83654	2.28334	1.83124	3.2588	61.62	-0.2527	0.0329	0.2856	734.083	0.138268	-325.810616	-325.803923	-325.802979	-325.841237	25.091	
C	 0.4294532096	 1.4432062285	 0.0281258997	-0.392409
C	-0.1032602163	 0.0151217209	-0.0084504402	 0.122983
C	 0.3759056041	-0.8149279922	-1.2164814579	-0.238841
C	 1.6411610097	-1.4932229617	-0.6746899714	-0.298749
C	 1.3716779809	-1.5837056339	 0.8121259245	 0.415236
N	 1.969707733	-2.3397508045	 1.6275551099	-0.542848
O	 0.3723019338	-0.7137613787	 1.147272211	-0.245449
H	 1.5183315783	 1.4633492254	-0.0856908197	 0.123419
H	-0.0116104472	 2.0331544747	-0.7818044591	 0.119651
H	 0.177247322	 1.9195222745	 0.9792485907	 0.132455
H	-1.19456382	 0.0274205618	 0.068807725	 0.091322
H	-0.3764419071	-1.565196429	-1.4766721612	 0.115776
H	 0.5524468639	-0.195347307	-2.0982667401	 0.10964
H	 1.8444448151	-2.4778133419	-1.0958396774	 0.136768
H	 2.5327085971	-0.8775356432	-0.837069163	 0.132178
H	 1.6110105531	-2.1977093038	 2.5735838394	 0.218868
98.3436	149.5584	243.387	333.8831	419.1265	458.1809	518.6231	648.9937	706.8015	792.5429	821.138	893.8489	905.6245	933.9746	964.8573	1004.8952	1040.9231	1100.7979	1106.6901	1127.113	1197.6024	1224.0868	1277.1736	1312.3665	1327.7553	1372.7446	1396.2674	1410.583	1474.5006	1487.6265	1496.9671	1501.7132	1777.0096	3037.5912	3054.0064	3057.7779	3068.1815	3110.1266	3113.4758	3122.0369	3134.6212	3469.1923
CC1CCC(=N)O1	C[C@H]1CC[C]([NH])O1	
InChI=1S/C5H9NO/c1-4-2-3-5(6)7-4/h4,6H,2-3H2,1H3	InChI=1S/C5H9NO/c1-4-2-3-5(6)7-4/h4,6H,2-3H2,1H3/t4-/m0/s1
