11
gdb 4289	4.27914	1.90801	1.31961	6.0524	55.21	-0.2522	-0.0427	0.2095	820.0286	0.072986	-434.586118	-434.579865	-434.578921	-434.616675	23.06	
O	 0.0546518958	 1.338469476	 0.007779229	-0.395658
C	-0.0367271712	 0.0092852504	 0.0010094578	 0.496634
C	-1.1873676477	-0.6858702472	 0.0036499184	-0.381228
C	-1.1524211432	-2.1420096589	-0.0044965891	 0.398414
O	-2.129257285	-2.8534598034	-0.0029012769	-0.339897
N	 0.1642727138	-2.7254483198	-0.0150657353	-0.287875
C	 1.1728087229	-1.970776008	-0.0166429008	 0.126697
O	 1.1783100523	-0.5936117344	-0.009103917	-0.228304
H	 0.9878694725	 1.5887539886	 0.0038969268	 0.317022
H	-2.1363501168	-0.1691547169	 0.011795584	 0.136876
H	 2.1961517966	-2.3340085765	-0.0242732369	 0.15732
121.5413	195.2954	353.1033	371.8812	436.4076	477.1274	549.3182	587.3775	687.6316	778.4985	781.113	860.7348	899.5714	935.5765	956.8717	1053.9631	1176.7074	1251.0181	1289.6717	1391.4693	1426.3113	1662.2588	1758.9046	1806.0384	3192.3117	3241.8383	3794.5509
OC1=CC(=O)N=CO1	Oc1cc(=O)nco1	
InChI=1S/C4H3NO3/c6-3-1-4(7)8-2-5-3/h1-2,7H	InChI=1S/C4H3NO3/c6-3-1-4(7)8-2-5-3/h1-2,7H
