11
gdb 2494	2.72779	2.71288	1.43925	2.0689	59.2	-0.259	-0.0434	0.2157	787.9447	0.074399	-306.044918	-306.037372	-306.036428	-306.076896	26.011	
O	-0.0293188465	 0.0148811951	 0.0016382339	-0.22661
C	 0.0104805921	 1.2104557005	 0.0078850442	 0.176234
C	 1.3380993253	 2.0194133195	-0.000161736	-0.398083
C	 1.3747776808	 2.832805062	-1.2155550539	 0.309836
C	 1.3484651102	 3.4695085544	-2.2334235794	-0.429942
C	 1.3976457949	 2.8194548449	 1.2231726634	 0.309837
C	 1.3904665496	 3.4450655124	 2.2482086973	-0.429948
H	-0.8945398371	 1.8507318417	 0.0198624064	 0.111009
H	 2.1480282958	 1.2800750088	-0.0118020635	 0.156183
H	 1.3480390551	 4.0413341099	-3.1287109485	 0.210741
H	 1.4067561799	 4.0067472909	 3.1497499261	 0.210742
68.0343	123.4958	162.3998	198.2409	331.7806	442.9436	451.8415	505.6305	559.5864	652.2944	653.7561	653.902	655.8869	937.4639	949.5951	1002.2469	1079.2211	1214.2676	1302.0579	1402.4023	1846.7728	2238.2425	2243.2769	2934.5741	3043.6481	3501.5285	3502.4859
O=CC(C#C)C#C	O=CC(C#C)C#C	
InChI=1S/C6H4O/c1-3-6(4-2)5-7/h1-2,5-6H	InChI=1S/C6H4O/c1-3-6(4-2)5-7/h1-2,5-6H
