9
gdb 2610	12.41438	1.01228	0.9414	4.2101	60.24	-0.3107	-0.0654	0.2453	1081.564	0.054932	-301.090914	-301.08422	-301.083276	-301.122066	22.041	
N	-0.1135881552	-1.1753733295	-0.0031484004	-0.280011
C	-0.0475505769	-0.0233447608	 0.0023860551	 0.286146
C	 0.0146020159	 1.443366594	 0.0096495541	-0.487986
C	 1.3795632561	 1.9562519828	-0.0006100901	 0.124647
C	 2.5012819538	 2.397092272	-0.0089396084	 0.045523
C	 3.7716611024	 2.9002072204	-0.0183521419	 0.227387
N	 4.8496303847	 3.3310513638	-0.0263205498	-0.3221
H	-0.5331749757	 1.8236046417	-0.8623704334	 0.203197
H	-0.5164223151	 1.8141870956	 0.8959703449	 0.203197
76.8193	141.8496	196.0897	339.1416	364.7625	374.1854	510.2559	575.3112	579.3252	746.278	930.1788	931.7341	1171.877	1232.2211	1339.0349	1438.3418	2278.4248	2377.8825	2415.9262	3029.755	3063.1821
N#CCC#CC#N	N#CCC#CC#N	
InChI=1S/C5H2N2/c6-4-2-1-3-5-7/h2H2	InChI=1S/C5H2N2/c6-4-2-1-3-5-7/h2H2
