11
gdb 831	5.21686	2.75151	2.72562	2.0586	35.84	-0.3543	0.0922	0.4465	529.7582	0.080927	-416.814878	-416.80872	-416.807775	-416.84483	21.285	
C	 0.026476819	 1.559658262	 0.010062999	-0.391682
C	 0.0018146039	 0.0305972303	 0.0022153136	-0.301051
C	-1.4050163534	-0.5278456694	 0.0126765133	 0.28547
F	-2.1087975527	-0.1263131756	-1.0597629687	-0.085962
F	-1.3981723647	-1.8710951698	 0.005501474	-0.081806
F	-2.0881854095	-0.1377576026	 1.1025178974	-0.085953
H	 1.0569566856	 1.9229634857	 0.0021935889	 0.124889
H	-0.4848221487	 1.9625085472	-0.8681539503	 0.137267
H	-0.4679990757	 1.9531463104	 0.9020506439	 0.137267
H	 0.4989068156	-0.3700312509	-0.886473999	 0.13078
H	 0.5157242205	-0.3793494172	 0.8769803477	 0.13078
105.1299	203.7384	222.5824	364.5258	407.8937	538.7127	548.6428	621.0594	798.29	810.7247	991.1782	1039.9847	1077.317	1198.005	1213.8873	1274.1834	1326.1039	1397.2285	1415.6383	1478.6849	1496.8683	1512.0791	3053.6492	3062.955	3103.4005	3128.2135	3132.334
CCC(F)(F)F	CCC(F)(F)F	
InChI=1S/C3H5F3/c1-2-3(4,5)6/h2H2,1H3	InChI=1S/C3H5F3/c1-2-3(4,5)6/h2H2,1H3
