10
gdb 3857	3.77715	3.6801	1.86706	3.8743	46.71	-0.2105	-0.022	0.1885	604.2693	0.066349	-392.601894	-392.59556	-392.594616	-392.631856	22.62	
N	 0.1054927234	 1.4268135266	-0.1123356116	-0.592093
C	-0.0011522325	 0.0621958488	-0.0481814838	 0.378731
C	-1.079642122	-0.784486706	-0.1131277585	 0.24304
O	-2.3882787455	-0.4418715218	-0.1969575977	-0.444037
N	-0.6042843236	-2.048980625	-0.0766176735	-0.188171
N	 0.6605503521	-2.068824834	 0.0070675658	-0.050001
O	 1.0951239547	-0.682653072	 0.0251067496	-0.209593
H	 0.927065943	 1.8098213839	 0.3332699284	 0.273335
H	-0.7432172395	 1.9170784593	 0.1308678084	 0.276322
H	-2.9041554301	-1.2562188097	-0.1881340771	 0.312467
164.2703	237.4109	264.3659	280.59	357.5751	466.6099	565.3797	651.7106	673.2449	675.4117	723.336	793.1212	990.7685	1082.9199	1155.7833	1342.9313	1359.8874	1418.5867	1501.0563	1635.7225	1724.3773	3566.4098	3671.5937	3820.7998
NC1=C(O)N=NO1	Nc1c(O)nno1	
InChI=1S/C2H3N3O2/c3-1-2(6)4-5-7-1/h6H,3H2	InChI=1S/C2H3N3O2/c3-1-2(6)4-5-7-1/h6H,3H2
