14
gdb 2982	4.52558	1.94025	1.45523	3.5804	57.86	-0.2964	0.0131	0.3095	811.2429	0.112983	-324.567513	-324.560217	-324.559273	-324.59913	25.907	
O	-0.2859892838	 1.247564512	 0.0847442406	-0.407023
C	 0.0524870412	-0.122013509	-0.0393796034	-0.029749
C	 0.8013043129	-0.3647977636	-1.2946723616	 0.258856
N	 1.4111162406	-0.5293632757	-2.2623353321	-0.319076
C	 0.8171096364	-0.6742685018	 1.1470787415	 0.006305
C	 0.0637527853	-1.0077207052	 2.407022132	-0.277032
C	 0.6290630696	-2.1143155564	 1.5550872725	-0.259389
H	 0.5305825365	 1.7545864102	 0.1603062352	 0.293266
H	-0.9070036139	-0.64599512	-0.1194635199	 0.134563
H	 1.8172718321	-0.2631109901	 1.2565739112	 0.098585
H	 0.5396040915	-0.7880543818	 3.3557042857	 0.123392
H	-1.0106447708	-0.8576562629	 2.4042182574	 0.126601
H	-0.0635020765	-2.7184937903	 0.9783785896	 0.124366
H	 1.497172889	-2.6565404255	 1.9107504311	 0.126335
68.3513	144.1087	211.1925	245.4762	287.3889	352.2048	457.8979	529.1787	607.1599	763.1144	832.9295	852.8878	906.7454	945.0598	999.796	1058.3472	1071.6956	1083.1485	1131.8934	1159.6563	1194.8682	1224.605	1274.6068	1299.8337	1413.8259	1416.8754	1472.5185	1506.4304	2354.365	3054.1958	3137.3867	3140.3074	3144.8055	3216.7016	3230.7895	3803.375
OC(C#N)C1CC1	O[C@@H](C#N)C1CC1	
InChI=1S/C5H7NO/c6-3-5(7)4-1-2-4/h4-5,7H,1-2H2	InChI=1S/C5H7NO/c6-3-5(7)4-1-2-4/h4-5,7H,1-2H2/t5-/m0/s1
