15
gdb 4002	3.18402	1.18402	0.87243	1.0207	73.63	-0.2235	-0.0215	0.202	1277.0373	0.11518	-399.723392	-399.713649	-399.712704	-399.760664	32.41	
C	-0.1900577738	 1.266021735	-0.4387627516	-0.504866
C	-0.0336103495	-0.1598316566	-0.2074949708	 0.137527
C	 0.0967602642	-1.3431744514	-0.0164614148	 0.045449
C	 0.2249627517	-2.7398198368	 0.2042833161	 0.169639
C	-0.9802562989	-3.6488142257	 0.0638202419	-0.164161
O	-2.1123387909	-2.8851886215	-0.2907336132	-0.413998
N	 1.3901200349	-3.1883811893	 0.5227768801	-0.176039
O	 1.3475002795	-4.5773606998	 0.7046916787	-0.397556
H	 0.7487312768	 1.8020967123	-0.2628625958	 0.153447
H	-0.5024941726	 1.4665746642	-1.4697807293	 0.15395
H	-0.9497575743	 1.6925897765	 0.2257789087	 0.154044
H	-0.7388161384	-4.4163763485	-0.6878809306	 0.119545
H	-1.1147200671	-4.1814896137	 1.0181314865	 0.119542
H	-2.8570950665	-3.4876297691	-0.3720719907	 0.291091
H	 2.2605344349	-4.7797467955	 0.9338355548	 0.312387
6.3905	74.6486	84.4643	122.3541	222.1409	222.9002	292.8017	297.8516	389.911	392.0611	471.9582	491.4475	561.5558	590.7936	723.2217	956.7304	1026.189	1039.2415	1047.6528	1053.3767	1118.5618	1222.056	1248.6877	1304.5311	1407.7278	1419.9352	1448.5274	1474.0841	1474.4369	1497.3846	1667.2892	2358.5075	2979.6096	3001.9429	3026.9992	3086.7767	3092.488	3823.367	3837.4276
CC#CC(CO)=NO	CC#CC(=NO)CO	
InChI=1S/C5H7NO2/c1-2-3-5(4-7)6-8/h7-8H,4H2,1H3	InChI=1S/C5H7NO2/c1-2-3-5(4-7)6-8/h7-8H,4H2,1H3
