14
gdb 940	5.63915	2.59726	1.78123	1.6318	67.3	-0.1991	0.0086	0.2077	683.6836	0.116849	-287.509315	-287.503525	-287.502581	-287.538453	23.173	
N	-0.0163224155	 1.4136802572	 0.1493342031	-0.590756
C	 0.0020312448	 0.020282505	 0.0475987977	 0.336724
C	-1.1934551094	-0.7118247733	 0.0330451422	-0.178475
C	-1.1694332794	-2.1010422192	-0.0062715702	-0.079885
C	 0.0397958132	-2.7928589821	-0.0332417297	-0.139844
C	 1.2300081891	-2.068436551	-0.0200152233	-0.079884
C	 1.216722451	-0.6790716275	 0.0192391113	-0.178476
H	 0.8087264938	 1.8733958315	-0.2078715935	 0.244389
H	-0.8575919538	 1.8507521535	-0.1983342042	 0.244389
H	-2.1422553477	-0.1831707261	 0.0563723871	 0.077705
H	-2.1079538779	-2.6464255708	-0.0184299143	 0.08981
H	 0.0543362436	-3.8763067051	-0.0651406315	 0.086789
H	 2.1828012149	-2.5881178795	-0.0430067941	 0.089809
H	 2.1510138634	-0.1248304826	 0.0317785795	 0.077705
224.2427	295.3001	382.2724	416.2446	509.7066	534.047	616.1564	631.5351	710.7599	772.7953	832.1737	836.367	884.2922	941.097	970.5967	1007.4543	1050.4507	1068.2887	1138.9363	1179.0525	1201.1902	1309.3874	1351.983	1359.2593	1500.7314	1534.1737	1626.929	1645.5227	1661.851	3159.109	3160.213	3176.3061	3181.4197	3200.4375	3561.2957	3659.2629
NC1=CC=CC=C1	Nc1ccccc1	
InChI=1S/C6H7N/c7-6-4-2-1-3-5-6/h1-5H,7H2	InChI=1S/C6H7N/c7-6-4-2-1-3-5-6/h1-5H,7H2
