16
gdb 3517	7.2023	1.70664	1.49348	2.6639	61.09	-0.2375	0.0792	0.3166	829.718	0.137964	-325.723538	-325.716817	-325.715872	-325.754744	24.224	
C	 1.1285002792	 0.5755930549	-0.7226894738	-0.245359
N	-0.3314752406	 0.7334899076	-0.7933121553	-0.310659
C	 0.2922140166	 0.3773474909	 0.4903467066	-0.013915
C	-0.0006629834	-0.9935167787	 1.0218320696	 0.173829
C	 0.9221300431	-1.5513671385	 2.1309751708	-0.297877
C	-0.3800078191	-1.6919618451	 2.9421411473	-0.060113
O	-1.1397696441	-1.0157223309	 1.9198501964	-0.294548
H	 1.5183850794	-0.2842860291	-1.261315087	 0.118304
H	 1.7626128516	 1.4572091151	-0.7635846229	 0.112606
H	-0.5810216084	 1.7185228385	-0.8003040132	 0.234552
H	 0.3472889798	 1.1480751507	 1.2581399406	 0.084002
H	-0.155508353	-1.6780560462	 0.1768676726	 0.079164
H	 1.4604231767	-2.4709231838	 1.898053141	 0.110252
H	 1.6235656609	-0.8149505929	 2.529774058	 0.107453
H	-0.7219394964	-2.7250110178	 3.0888444349	 0.099772
H	-0.4242621722	-1.1663068146	 3.9030822546	 0.102537
88.6491	89.7811	187.7558	294.0379	381.2257	475.9797	730.1082	812.2726	855.8546	872.9877	890.1596	912.6641	951.8414	970.5837	1008.4467	1027.1048	1052.4623	1094.8216	1119.9891	1146.9609	1166.4523	1211.698	1242.4534	1248.971	1255.9128	1281.1064	1287.6692	1336.3655	1357.2429	1456.7413	1489.2442	1515.0842	1533.2566	3008.7086	3017.2828	3053.715	3075.3071	3106.4945	3118.3037	3132.9274	3189.7589	3510.9263
C1NC1C1CCO1	C1N[C@H]1[C@H]1CCO1	
InChI=1S/C5H9NO/c1-2-7-5(1)4-3-6-4/h4-6H,1-3H2	InChI=1S/C5H9NO/c1-2-7-5(1)4-3-6-4/h4-6H,1-3H2/t4-,5-/m1/s1
