12
gdb 1461	8.30634	1.44292	1.23893	6.8724	49.53	-0.2525	-0.0299	0.2225	881.9452	0.088083	-397.680771	-397.673011	-397.672066	-397.713681	25.203	
O	 0.1505095169	 1.4070348616	 0.0093391622	-0.383796
C	 0.0071892469	 0.0161439813	 0.0016730023	-0.193814
C	-1.4898043269	-0.317676692	 0.0143054132	 0.423153
O	-2.3631322579	 0.5010831457	 0.0267906878	-0.270197
N	-1.7040352918	-1.7089218607	 0.009310007	-0.356146
C	-2.9202369804	-2.3881995405	 0.0171111154	 0.169031
O	-4.0138008694	-1.8984472636	 0.0299361807	-0.248068
H	 1.0898397804	 1.6127417595	-0.0026254595	 0.297364
H	 0.4521704242	-0.4542281801	-0.8929823634	 0.111701
H	 0.4698819571	-0.4657555808	 0.8811240391	 0.111565
H	-0.8830873903	-2.2981094422	-0.0010976927	 0.254556
H	-2.7408149786	-3.4835882282	 0.0104937579	 0.084651
53.6758	64.2334	166.366	207.2255	223.2456	282.8807	378.3156	550.9825	574.0286	624.8034	763.9232	936.4657	1022.1107	1035.9669	1069.9786	1156.9122	1161.4139	1240.9887	1257.1566	1443.026	1447.933	1507.3566	1510.9803	1828.3558	1889.8371	2916.1363	2945.3275	2969.2626	3596.8681	3838.1893
OCC(=O)NC=O	OCC(=O)NC=O	
InChI=1S/C3H5NO3/c5-1-3(7)4-2-6/h2,5H,1H2,(H,4,6,7)	InChI=1S/C3H5NO3/c5-1-3(7)4-2-6/h2,5H,1H2,(H,4,6,7)
