10
gdb 3921	8.5356	2.03733	1.64475	4.8782	50.12	-0.271	-0.077	0.194	672.7102	0.067056	-359.306313	-359.300767	-359.299823	-359.336004	19.145	
O	-0.055182276	-0.029985471	-0.0014252275	-0.231329
C	 0.0079027119	 1.171242313	 0.0066931726	 0.097241
C	 1.2653729263	 1.9614698575	-0.0004567867	 0.286713
N	 2.4495168805	 1.3800754291	-0.0175063328	-0.160027
O	 3.3635470573	 2.4078683362	-0.0189535083	-0.144483
C	 2.7176974125	 3.5872388569	-0.0031393702	 0.091173
C	 1.3779700241	 3.3830388804	 0.0090899664	-0.329245
H	-0.9055952845	 1.8053596623	 0.0201332436	 0.085552
H	 3.3442093802	 4.4650454431	-0.0028563117	 0.166055
H	 0.5889267477	 4.1162885624	 0.0228802846	 0.138349
104.6398	211.1291	262.799	480.9208	622.0214	678.1021	765.1927	801.88	875.9865	925.2992	971.1451	1028.3909	1032.8223	1073.266	1144.0328	1273.2414	1399.0466	1457.6274	1469.366	1581.5048	1824.3709	2892.7444	3268.631	3290.0632
O=CC1=NOC=C1	O=Cc1nocc1	
InChI=1S/C4H3NO2/c6-3-4-1-2-7-5-4/h1-3H	InChI=1S/C4H3NO2/c6-3-4-1-2-7-5-4/h1-3H
