15
gdb 4578	5.67278	1.50587	1.19878	3.0271	71.52	-0.2241	-0.0195	0.2046	967.6925	0.12005	-362.72961	-362.72241	-362.721466	-362.761308	26.904	
C	-0.0446101499	 1.5098768105	 0.0109009361	-0.466481
C	 0.0144803709	 0.0040284649	 0.0240367947	 0.312229
N	 0.1237746719	-0.6049943921	-1.167176731	-0.305862
C	 0.17969911	-1.9308774448	-1.2103309137	-0.059135
C	 0.1306686626	-2.7411025295	-0.0709866531	 0.334563
O	 0.1967501809	-4.0900601458	-0.2436445833	-0.438401
C	 0.0174779084	-2.1178594363	 1.166866594	-0.221657
C	-0.0409511667	-0.7286394292	 1.209813506	-0.142565
H	 0.8545539742	 1.9264149368	-0.454637634	 0.13693
H	-0.8987556496	 1.8565460628	-0.5798473823	 0.13693
H	-0.1330157586	 1.9188894357	 1.0206377435	 0.113353
H	 0.268133719	-2.4002598077	-2.1872814758	 0.112823
H	 0.1527365823	-4.5235302802	 0.6150684604	 0.298259
H	-0.0243686585	-2.7049945601	 2.0809669719	 0.092511
H	-0.1293208269	-0.2179228249	 2.1627674065	 0.096504
56.8565	140.3796	310.997	346.5431	349.949	422.5949	432.131	486.8269	530.5545	652.7578	752.7171	756.096	843.7133	864.9823	944.7314	955.0932	1007.2311	1034.1261	1061.2038	1152.9728	1186.6872	1262.9332	1301.4295	1307.691	1331.5336	1411.804	1452.3895	1476.4431	1496.4862	1523.2115	1622.2713	1645.6463	3038.3263	3097.2432	3120.4285	3154.6215	3157.5635	3187.191	3819.304
CC1=NC=C(O)C=C1	Cc1ncc(O)cc1	
InChI=1S/C6H7NO/c1-5-2-3-6(8)4-7-5/h2-4,8H,1H3	InChI=1S/C6H7NO/c1-5-2-3-6(8)4-7-5/h2-4,8H,1H3
