9
gdb 51	9.77329	9.41192	4.7946	3.6193	39.13	-0.2253	0.0332	0.2585	283.6817	0.071145	-226.160842	-226.157088	-226.156144	-226.187104	13.371	
N	-0.0099608956	 1.3563617218	 0.0100085491	-0.225464
C	 1.2953542168	 1.7957557773	-0.0004701666	-0.103646
C	 2.0555051925	 0.6563743767	-0.0142292703	-0.073373
N	 1.2538574504	-0.4627513199	-0.0126089443	-0.248012
C	 0.0230117025	-0.0070638215	 0.0020014625	 0.019512
H	-0.8319571811	 1.9361843569	 0.021325745	 0.266773
H	 1.545539609	 2.8434499787	 0.0028905368	 0.127168
H	 3.1317743363	 0.5756976557	-0.0252415521	 0.108019
H	-0.8766786409	-0.6041453057	 0.0075079399	 0.129022
527.6476	647.7321	686.3989	729.5112	813.9953	861.2804	905.7719	945.0587	1079.0565	1101.7524	1152.7914	1165.3914	1286.6442	1369.041	1435.1245	1507.9788	1561.5641	3249.1166	3252.7386	3282.2515	3668.086
N1C=CN=C1	[nH]1ccnc1	
InChI=1S/C3H4N2/c1-2-5-3-4-1/h1-3H,(H,4,5)	InChI=1S/C3H4N2/c1-2-5-3-4-1/h1-3H,(H,4,5)
