19
gdb 4127	4.19289	1.25452	1.05737	0.5905	75.11	-0.2365	0.0181	0.2545	1152.3635	0.164388	-365.018512	-365.009691	-365.008746	-365.05249	31.999	
C	 0.1054830938	 1.4836774919	 0.0078265478	-0.472714
C	 0.0093431027	-0.0177698663	 0.0930804701	 0.343238
N	-0.0558120719	-0.6624993242	 1.1948853071	-0.174239
O	-0.0262568283	 0.2037616272	 2.3036714975	-0.402473
C	 0.0010258956	-0.812904734	-1.1767022444	-0.038761
C	 1.3299502463	-0.9086944368	-2.001611299	-0.222168
C	 0.9559464752	-2.3777734125	-2.3354042584	-0.214306
C	-0.0386756439	-2.3621026303	-1.1438377476	-0.227515
H	 0.9601981484	 1.8471418284	 0.5863345383	 0.146762
H	 0.2056710584	 1.8163204125	-1.027322251	 0.117075
H	-0.7847620613	 1.9476591134	 0.4456240089	 0.145879
H	-0.0835663979	-0.4131219874	 3.0405204348	 0.30375
H	-0.7910587685	-0.4213554765	-1.828293331	 0.079531
H	 1.4673380198	-0.2102527933	-2.8305055095	 0.095498
H	 2.2023310959	-0.8535814809	-1.3439798843	 0.106905
H	 0.4404695459	-2.4545598838	-3.2972452387	 0.100104
H	 1.7600849307	-3.1165851374	-2.3144021122	 0.097929
H	 0.4110511255	-2.7396482547	-0.2237922572	 0.119981
H	-1.0110228764	-2.8403949553	-1.2798636312	 0.095524
62.1	72.191	117.9163	163.0781	230.3363	297.0402	364.9771	407.4906	435.8688	530.7568	585.512	681.1083	755.8694	786.5584	878.0944	913.6006	935.7728	956.5661	972.3009	1007.7526	1023.1359	1040.0684	1069.2078	1134.458	1201.0021	1226.951	1238.1629	1255.5703	1257.4931	1277.3246	1282.3333	1370.8386	1398.1531	1405.0835	1474.7712	1479.7444	1485.0316	1488.5677	1511.529	1725.3781	3019.5569	3042.9862	3054.8005	3058.2973	3074.9484	3101.0417	3101.8544	3115.3593	3132.3341	3133.8927	3823.1494
CC(=NO)C1CCC1	CC(=NO)C1CCC1	
InChI=1S/C6H11NO/c1-5(7-8)6-3-2-4-6/h6,8H,2-4H2,1H3	InChI=1S/C6H11NO/c1-5(7-8)6-3-2-4-6/h6,8H,2-4H2,1H3
