14
gdb 4720	6.50076	1.33851	1.11764	3.3026	76.21	-0.2131	-0.013	0.2001	1022.8384	0.107459	-341.600869	-341.593377	-341.592432	-341.632588	27.633	
C	 0.0312411069	 1.508163519	 0.0188432273	-0.497045
C	 0.0046004104	 0.0145968787	-0.020790723	 0.275163
C	-0.1329001581	-0.8099229821	-1.1147989575	-0.173801
N	-0.0956907418	-2.0899889359	-0.6242734826	-0.28881
C	 0.0612630612	-2.0020425097	 0.7349015865	 0.17937
N	 0.1241543773	-0.7373943039	 1.1204475436	-0.343444
C	 0.138132528	-3.1506154068	 1.5547697375	 0.27017
C	 0.2001740146	-4.1483763566	 2.2256352997	-0.411052
H	 0.9719215111	 1.8723776634	 0.4449048376	 0.137021
H	-0.07706211	 1.9308245144	-0.9836574017	 0.116497
H	-0.7780496789	 1.898283821	 0.644871832	 0.137017
H	-0.2502480762	-0.6044530036	-2.1660599306	 0.130859
H	-0.1688208073	-2.9434008266	-1.152358317	 0.271564
H	 0.256778783	-5.0179516113	 2.8324525682	 0.196491
101.9452	139.9098	147.0601	279.8808	328.7954	451.9322	542.4648	548.1873	559.687	565.6514	661.026	683.2893	711.6489	733.5528	744.6595	988.5684	1010.2034	1033.1245	1065.2148	1116.0853	1232.3792	1297.7545	1373.0676	1415.8523	1425.1341	1476.2541	1494.1053	1525.3358	1594.2168	2234.9144	3036.8656	3093.3471	3117.0708	3270.4381	3502.4257	3667.0392
CC1=CNC(=N1)C#C	Cc1c[nH]c(n1)C#C	
InChI=1S/C6H6N2/c1-3-6-7-4-5(2)8-6/h1,4H,2H3,(H,7,8)	InChI=1S/C6H6N2/c1-3-6-7-4-5(2)8-6/h1,4H,2H3,(H,7,8)
