10
gdb 3935	6.32804	2.84185	1.96113	3.2241	50.29	-0.2453	-0.0655	0.1798	581.2202	0.069261	-355.513035	-355.508016	-355.507072	-355.541787	18.491	
O	 0.1098350254	 1.3364155948	-0.0913922079	-0.396393
C	 0.0718711919	 0.0031032702	-0.0356442041	 0.425968
C	-0.0102020508	-0.7426038404	-1.2272708486	-0.044271
N	-0.049007444	-2.0609763087	-1.1970103087	-0.156676
N	-0.0094883191	-2.6910091061	-0.013904459	-0.200512
C	 0.0675543212	-1.9386694883	 1.0758936121	 0.110871
N	 0.1116219416	-0.6001781344	 1.1362211114	-0.331551
H	 0.1650306808	 1.6569884278	 0.8217951814	 0.310124
H	-0.0436821543	-0.2594256521	-2.1978809279	 0.141275
H	 0.0984045772	-2.4739474327	 2.0206352313	 0.141165
197.6109	387.2139	409.0957	531.2687	578.2514	604.587	686.2329	817.3878	902.9153	930.9483	997.9464	1018.8149	1062.2714	1156.3113	1235.0438	1294.0812	1360.8768	1410.9412	1489.6355	1587.4608	1623.4696	3183.7543	3194.9496	3740.9885
OC1=CN=NC=N1	Oc1cnncn1	
InChI=1S/C3H3N3O/c7-3-1-5-6-2-4-3/h1-2H,(H,4,6,7)	InChI=1S/C3H3N3O/c7-3-1-5-6-2-4-3/h1-2H,(H,4,6,7)
