9
gdb 1202	11.37182	1.11152	1.01255	4.9028	58.96	-0.2881	-0.0871	0.2009	1014.6504	0.054698	-338.246643	-338.239603	-338.238659	-338.278067	23.314	
N	-0.0315649628	 1.3495933025	 0.0088311047	-0.519671
C	 0.0603529957	-0.0056989088	 0.0013636042	 0.270361
O	 1.0997790442	-0.6308701096	-0.0114150846	-0.311894
C	-1.2349091378	-0.6883678058	 0.0100478056	 0.092397
C	-2.2579731231	-1.3315558708	 0.0163960231	 0.010616
C	-3.4233633998	-2.0428875315	 0.0237328774	 0.220512
N	-4.4184801804	-2.6415694386	 0.0300227143	-0.320998
H	 0.8206733465	 1.8867453778	 0.0033136314	 0.279892
H	-0.9178568825	 1.8241356047	 0.0191364839	 0.278785
90.7316	113.5507	203.1966	242.7499	306.5722	411.1626	541.2273	553.4626	593.9321	598.8235	678.6132	771.1845	1071.1818	1092.4223	1352.5774	1612.9176	1782.5925	2259.6353	2394.8041	3599.2555	3739.0399
NC(=O)C#CC#N	NC(=O)C#CC#N	
InChI=1S/C4H2N2O/c5-3-1-2-4(6)7/h(H2,6,7)	InChI=1S/C4H2N2O/c5-3-1-2-4(6)7/h(H2,6,7)
