13
gdb 4151	3.46957	1.53059	1.12851	4.7936	62.66	-0.2602	-0.0234	0.2369	988.0729	0.095305	-394.711391	-394.703873	-394.702929	-394.743598	26.746	
O	-0.1175319237	 1.3571053885	 0.0425231278	-0.380429
N	 0.0333640415	-0.0300769556	 0.1056457082	-0.209749
C	-1.0775763915	-0.6165499078	 0.0018011028	 0.410336
C	-2.535129542	-0.2752063873	-0.2052175786	-0.259258
N	-2.7917689059	-1.7290834755	-0.4288144719	-0.309431
C	-1.4171986234	-2.1027742056	 0.0145842163	-0.22134
C	-0.6935633984	-2.9874006321	-0.9010392072	 0.321394
N	-0.1167320076	-3.6912166335	-1.6123778275	-0.319924
H	 0.7927661826	 1.6683913157	 0.1040788603	 0.317763
H	-3.0079389134	 0.1606742468	 0.684902133	 0.129374
H	-2.7669371734	 0.3544592737	-1.0699745683	 0.147998
H	-3.5247077496	-2.1280576038	 0.1454060341	 0.237121
H	-1.3590658751	-2.5284970236	 1.0264137908	 0.136144
96.7757	112.5431	188.0586	229.8919	315.4625	377.7683	442.0672	491.948	537.2413	599.4874	686.2571	769.5434	864.0623	955.2433	985.7383	1013.9115	1024.0604	1068.4009	1118.7405	1169.149	1211.734	1299.6961	1340.9875	1383.8612	1416.267	1494.4817	1809.1358	2364.1894	3006.0042	3019.9429	3077.4307	3554.6922	3809.4181
ON=C1CNC1C#N	ON=C1CN[C@H]1C#N	
InChI=1S/C4H5N3O/c5-1-3-4(7-8)2-6-3/h3,6,8H,2H2	InChI=1S/C4H5N3O/c5-1-3-4(7-8)2-6-3/h3,6,8H,2H2/t3-/m0/s1
