17
gdb 4082	4.05676	1.53573	1.19564	1.2591	68.17	-0.246	0.005	0.2509	995.5799	0.143373	-400.964306	-400.956888	-400.955944	-400.995967	28.335	
O	-0.0625685913	 1.3816709221	 0.0562574927	-0.396621
N	 0.0635198489	-0.0176336337	-0.0050169488	-0.193663
C	-1.065580435	-0.6115537002	-0.0233215847	 0.373429
C	-1.0681128206	-2.1185481976	-0.0405080969	-0.285824
C	-2.0955317603	-2.6443850947	-1.0589330415	-0.205138
C	-3.4297417418	-1.9233981759	-0.866527353	-0.064852
O	-3.2789461358	-0.5213301987	-1.0102638043	-0.242925
C	-2.4254566422	 0.0527744239	-0.031654102	-0.169251
H	 0.8554569753	 1.6667350486	 0.0037011656	 0.307135
H	-0.0586827879	-2.4863235469	-0.239412603	 0.119203
H	-1.3537443775	-2.4748262604	 0.9607699589	 0.110367
H	-1.7389664685	-2.4578867079	-2.0782086718	 0.115024
H	-2.2292258297	-3.7258653734	-0.9458890232	 0.09848
H	-4.1597428938	-2.2273414868	-1.6221151808	 0.109916
H	-3.8502447879	-2.1622727612	 0.1267801002	 0.083148
H	-2.8776807893	-0.0401328018	 0.9725296926	 0.098825
H	-2.3370070326	 1.1116638946	-0.2704283199	 0.142749
87.3842	186.7275	257.8914	311.6549	330.7831	386.4915	415.5832	443.7762	507.0893	575.0725	674.5639	787.6473	866.0759	867.4326	918.3435	969.132	978.8484	1017.0841	1039.5668	1120.6591	1130.6448	1198.9712	1224.5289	1271.7064	1276.0357	1321.0671	1348.6262	1367.6848	1369.8702	1408.2253	1419.6734	1472.3618	1481.8813	1484.5114	1500.9033	1740.7468	2943.0447	2950.2905	2999.1396	3038.5053	3083.5054	3087.8746	3101.6125	3145.2741	3824.8858
ON=C1CCCOC1	ON=C1CCCOC1	
InChI=1S/C5H9NO2/c7-6-5-2-1-3-8-4-5/h7H,1-4H2	InChI=1S/C5H9NO2/c7-6-5-2-1-3-8-4-5/h7H,1-4H2
