10
gdb 2569	4.78423	2.27925	1.71724	2.2343	48.82	-0.2918	-0.0778	0.2141	674.7265	0.064771	-359.29518	-359.288646	-359.287702	-359.325943	21.976	
O	-0.0952485339	 0.2354613889	 0.7672481955	-0.225793
C	 0.2615787474	 0.8789009728	-0.1790827413	 0.101935
C	 1.3842963026	 1.8993380828	-0.0754091134	 0.174938
C	 1.5385532532	 2.631486816	 1.2123274468	-0.186297
O	 2.4121620409	 1.5795516555	 0.8635930121	-0.224961
C	 1.8091116109	 2.5128923156	-1.3159047372	 0.239908
N	 2.0979710159	 2.978946537	-2.3330796315	-0.306045
H	-0.2015443162	 0.7907302782	-1.1819862526	 0.116643
H	 1.9610493965	 3.6337195988	 1.1901771027	 0.151804
H	 0.8208391326	 2.4032486445	 1.9972709689	 0.157867
95.682	153.5755	226.0254	255.7036	328.5757	529.7127	546.6894	576.3934	749.8611	845.9229	907.9425	948.1242	1045.0149	1140.787	1177.9243	1192.6045	1340.9262	1419.8326	1501.1605	1839.8051	2360.7308	2942.7887	3099.0881	3206.3461
O=CC1(CO1)C#N	O=C[C@]1(CO1)C#N	
InChI=1S/C4H3NO2/c5-1-4(2-6)3-7-4/h2H,3H2	InChI=1S/C4H3NO2/c5-1-4(2-6)3-7-4/h2H,3H2/t4-/m0/s1
