15
gdb 4963	3.30645	2.30892	1.37098	0.9766	70.71	-0.2271	-0.0146	0.2125	863.281	0.121061	-362.743721	-362.736874	-362.73593	-362.774607	26.183	
C	-0.0365882555	 1.5483839754	-0.0197186695	-0.490004
C	-0.0007305116	 0.0455591534	-0.0373084308	 0.187676
C	-0.0865950695	-0.7108764677	-1.196933098	-0.146669
C	-0.0467591681	-2.1067366351	-1.1408770602	-0.132912
C	 0.0803303159	-2.7043920923	 0.1017996994	-0.010942
N	 0.1659317272	-2.0063562215	 1.2426103545	-0.362978
C	 0.125462667	-0.6856873313	 1.1592866788	 0.372413
O	 0.2128506551	 0.0095817474	 2.3171867087	-0.414351
H	 0.8748806181	 1.9616730286	 0.4256026367	 0.13951
H	-0.1387883832	 1.9490724237	-1.031513802	 0.117992
H	-0.8719343468	 1.9181424895	 0.5847236805	 0.139522
H	-0.1855154936	-0.2052270112	-2.1532782297	 0.100361
H	-0.1129206575	-2.7077715539	-2.0398172823	 0.096137
H	 0.1163700973	-3.7858573363	 0.2024109968	 0.108388
H	 0.2924228652	-0.6549992388	 3.0157404372	 0.295855
130.5342	167.5243	278.9461	280.7999	448.7174	458.6022	540.3855	548.7489	582.4027	602.8845	759.4327	794.2428	809.076	884.9135	959.833	975.7123	1007.409	1067.9807	1082.0897	1120.3289	1189.9591	1238.2643	1317.2448	1330.5808	1364.1764	1416.2028	1469.9932	1477.3532	1502.5462	1506.0368	1636.3189	1645.6641	3034.567	3088.3955	3117.735	3162.399	3170.5346	3205.8137	3765.3733
CC1=CC=CN=C1O	Cc1cccnc1O	
InChI=1S/C6H7NO/c1-5-3-2-4-7-6(5)8/h2-4H,1H3,(H,7,8)	InChI=1S/C6H7NO/c1-5-3-2-4-7-6(5)8/h2-4H,1H3,(H,7,8)
