14
gdb 3204	3.51731	3.32655	2.06949	3.8424	56.94	-0.2452	-0.0115	0.2338	650.9124	0.113558	-324.558175	-324.551796	-324.550852	-324.588291	23.539	
C	-0.0574026357	 1.629820685	-0.0296810816	-0.412953
C	 0.0618288154	 0.1111288597	-0.0479982014	-0.122591
C	 0.7596283559	-0.6311172998	-1.1932035104	-0.038169
C	 2.2113693019	-0.4099795793	-1.1946281667	-0.244758
N	 1.6606837386	-1.4099983271	-0.2257420241	-0.173954
C	 1.0971160861	-0.6012289713	 0.8483905628	 0.386185
O	 1.3538524624	-0.6117949579	 2.0104638822	-0.294399
H	 0.8926928138	 2.116108829	-0.2683992738	 0.123792
H	-0.8041121299	 1.9728796107	-0.75242162	 0.125995
H	-0.3655325084	 1.9684791598	 0.9638573839	 0.142087
H	-0.9138008532	-0.3467545282	 0.1551252206	 0.11932
H	 0.2523711974	-1.1638973898	-1.9884252015	 0.11302
H	 2.8046297144	-0.8791612602	-1.9723922335	 0.141464
H	 2.6325795814	 0.5124273795	-0.8030159164	 0.134962
149.5227	186.7876	215.984	261.0515	487.0474	494.2539	657.1264	685.6754	738.2088	787.453	821.6322	901.7043	981.7509	1001.3609	1045.2906	1064.2022	1099.2194	1119.5047	1141.5282	1153.6423	1221.5176	1246.8238	1350.0768	1361.3976	1411.4747	1493.0228	1496.0395	1511.3289	1918.2986	3042.7155	3047.5531	3112.3181	3117.057	3120.3343	3191.8958	3211.27
CC1C2CN2C1=O	C[C@H]1[C@H]2CN2C1=O	
InChI=1S/C5H7NO/c1-3-4-2-6(4)5(3)7/h3-4H,2H2,1H3	InChI=1S/C5H7NO/c1-3-4-2-6(4)5(3)7/h3-4H,2H2,1H3/t3-,4+,6?/m0/s1
