15
gdb 4471	3.61567	1.75424	1.19755	1.872	64.71	-0.1876	0.041	0.2285	964.5611	0.118333	-399.829792	-399.821686	-399.820742	-399.86186	29.877	
C	 0.0654473007	 1.5523826632	 0.0793975134	-0.505551
C	 0.0385150059	 0.0575492587	 0.058768149	 0.289548
C	-0.0207324642	-0.7245180505	-1.0496274296	 0.170302
N	-0.0711467702	-0.4180312917	-2.4059231087	-0.594187
O	-0.0283690523	-2.076165173	-0.6601363142	-0.223822
C	 0.0270044728	-2.0812185907	 0.6868043387	 0.422098
O	 0.0307984567	-3.2832477649	 1.2891077346	-0.426842
C	 0.0700476148	-0.8273326079	 1.2000595874	-0.409343
H	 0.9735541959	 1.929425278	 0.5641601365	 0.123835
H	 0.0308081924	 1.945298943	-0.9391991847	 0.137461
H	-0.7865571813	 1.9601614211	 0.6358396005	 0.123841
H	-0.9185289216	-0.7458200629	-2.8588405801	 0.241466
H	 0.7241005934	-0.7747942485	-2.9264399435	 0.241466
H	-0.0092423669	-3.9593603335	 0.6025766385	 0.304767
H	 0.1176294594	-0.5619180903	 2.2430488725	 0.104959
132.0847	181.6223	205.6942	238.0585	255.3194	263.0616	313.4711	369.4715	520.2424	594.3979	633.992	661.0614	680.1141	755.356	756.3274	811.1235	980.9796	1020.0271	1051.551	1067.3209	1157.8919	1209.2569	1215.1508	1261.139	1349.5273	1410.0517	1455.1555	1489.0946	1493.3055	1648.2467	1687.3268	1723.5824	3027.2488	3074.5372	3126.4948	3268.775	3488.2048	3550.5856	3815.4742
CC1=C(N)OC(O)=C1	Cc1c(N)oc(O)c1	
InChI=1S/C5H7NO2/c1-3-2-4(7)8-5(3)6/h2,7H,6H2,1H3	InChI=1S/C5H7NO2/c1-3-2-4(7)8-5(3)6/h2,7H,6H2,1H3
