11
gdb 4453	3.5714	1.98328	1.2841	3.2353	49.38	-0.2232	0.034	0.2573	846.1286	0.071492	-471.711417	-471.704208	-471.703264	-471.743015	25.652	
N	 0.005507465	 1.4425797832	 0.000105394	-0.590813
C	-0.0833335455	 0.0700229225	-0.002790783	 0.143674
C	-1.1145991492	-0.7741398365	 0.0436616196	 0.383244
O	-2.4301759458	-0.5713023486	 0.1097407374	-0.409541
O	-0.6775268879	-2.0755499539	 0.0151782801	-0.253211
C	 0.7092907965	-2.0393712273	-0.0532749241	 0.505972
O	 1.4006790094	-3.0055465663	-0.0922729021	-0.371382
O	 1.0915967489	-0.7511666985	-0.0651353435	-0.241231
H	 0.4896097005	 1.8215598174	 0.8068164284	 0.25605
H	 0.4079555361	 1.8303320657	-0.8463270746	 0.256047
H	-2.8699287579	-1.4300880776	 0.1268790477	 0.321192
100.5479	166.4733	231.5483	284.3619	291.4868	352.7944	394.1559	611.8867	642.2201	646.5056	660.3765	732.9224	774.5795	833.4872	929.1606	994.0035	1174.6674	1181.8848	1217.895	1370.8262	1416.7184	1663.799	1865.1787	1951.5529	3504.4973	3572.5976	3815.1546
NC1=C(O)OC(=O)O1	Nc1c(O)oc(=O)o1	
InChI=1S/C3H3NO4/c4-1-2(5)8-3(6)7-1/h5H,4H2	InChI=1S/C3H3NO4/c4-1-2(5)8-3(6)7-1/h5H,4H2
