15
gdb 1411	6.23412	1.3572	1.18722	2.1768	63.84	-0.2529	-0.0289	0.224	965.4502	0.121699	-308.496384	-308.488145	-308.4872	-308.529306	28.587	
C	 0.1133757935	 1.6088049315	-0.0252242631	-0.385072
C	 0.0085368818	 0.0703353331	-0.0443972073	-0.176285
C	-1.4681352798	-0.4000279629	-0.0100377836	-0.269229
C	-2.1456261888	-0.0577278452	 1.2986241649	 0.156127
O	-3.2184657504	 0.476027756	 1.4048056748	-0.235463
C	 0.700143796	-0.4933325744	-1.201042436	 0.317011
C	 1.2542031749	-0.947446568	-2.1662212903	-0.449307
H	 1.1590433697	 1.9252069837	-0.0189574903	 0.132048
H	-0.3680911203	 2.0366884256	-0.9092850162	 0.135213
H	-0.3781560586	 2.0178825892	 0.8630519853	 0.126557
H	 0.4989343942	-0.3157325961	 0.8613941687	 0.111961
H	-2.0409446466	 0.0282753995	-0.8368296907	 0.131769
H	-1.49171217	-1.493418703	-0.1107397116	 0.13415
H	-1.5638651097	-0.3587268778	 2.2035332287	 0.072048
H	 1.7525424442	-1.3522448612	-3.0120940233	 0.198472
62.9304	79.3568	149.2441	203.4656	235.9566	300.3708	369.4034	449.4785	532.681	560.4984	632.7635	642.2454	757.2208	849.3938	933.0906	962.867	1013.2154	1099.6088	1114.6893	1152.7009	1223.715	1268.408	1332.894	1358.6647	1411.9789	1429.0719	1458.2428	1489.4596	1501.1315	1838.2026	2237.2786	2839.7198	2998.7587	3030.0573	3043.1613	3109.0713	3115.6624	3128.5121	3504.5078
CC(CC=O)C#C	C[C@@H](CC=O)C#C	
InChI=1S/C6H8O/c1-3-6(2)4-5-7/h1,5-6H,4H2,2H3	InChI=1S/C6H8O/c1-3-6(2)4-5-7/h1,5-6H,4H2,2H3/t6-/m1/s1
