14
gdb 298	5.46124	3.21403	2.92761	2.486	49.2	-0.246	0.0616	0.3076	527.7516	0.118569	-307.544712	-307.538272	-307.537328	-307.574452	23.305	
C	-0.1283162431	 1.547975139	-0.0286430257	-0.456114
C	-0.0021063161	 0.0315703742	-0.0151066211	 0.357436
O	-1.2457802122	-0.6075169206	-0.1997039802	-0.46603
C	 1.1990311212	-0.5237593246	-0.8308146029	-0.115475
O	 1.9384984487	-0.7779267047	 0.3808520794	-0.273215
C	 0.7671663084	-0.5471615753	 1.1902961054	-0.098063
H	 0.8382281112	 2.0209238438	 0.1680511936	 0.134369
H	-0.4781126632	 1.90117513	-1.0071779156	 0.110072
H	-0.8413941521	 1.8789629385	 0.7330076982	 0.127302
H	-1.7263220094	-0.1453754965	-0.8944963538	 0.278975
H	 0.949247067	-1.4481523961	-1.3680394534	 0.098359
H	 1.7271589292	 0.1663328667	-1.4997331167	 0.09487
H	 0.9682928082	 0.1255325821	 2.0316045591	 0.100212
H	 0.3227314322	-1.4809516766	 1.5571444036	 0.107303
101.0502	255.6176	260.1003	303.773	361.1794	429.6886	433.4554	655.0351	833.5927	901.7229	923.5648	965.3989	979.138	1011.7445	1028.1747	1131.8067	1151.1968	1166.4871	1201.4793	1275.0461	1300.6251	1343.8057	1406.712	1410.5997	1489.3412	1492.9441	1502.9153	1528.4509	3005.856	3019.0592	3023.6522	3062.8301	3071.657	3090.9921	3116.4592	3810.8047
CC1(O)COC1	CC1(O)COC1	
InChI=1S/C4H8O2/c1-4(5)2-6-3-4/h5H,2-3H2,1H3	InChI=1S/C4H8O2/c1-4(5)2-6-3-4/h5H,2-3H2,1H3
