15
gdb 2270	3.6786	2.80987	2.14687	1.0064	56.83	-0.2515	0.0761	0.3276	662.5754	0.124498	-345.614707	-345.607894	-345.60695	-345.644966	26.148	
O	-0.0485789022	 1.4484857905	-0.0902879172	-0.439328
C	 0.0009182247	 0.0439085275	 0.0431715833	 0.046534
C	 0.2242570089	-0.5910554526	 1.4650155692	-0.268022
C	-1.1160537104	-1.3169876166	 1.3128444547	-0.103069
C	-2.2123722234	-0.287754432	 1.1561203287	-0.33648
C	-1.3581172941	-0.636953642	-0.0304836224	 0.398701
O	-1.8759731105	-1.1972096622	-1.1846001655	-0.464935
H	 0.8509212237	 1.7886700351	-0.0538782727	 0.28354
H	 0.6825841892	-0.4054843132	-0.6912210289	 0.075989
H	 1.0958210135	-1.2480935635	 1.5076160274	 0.100403
H	 0.2731917525	 0.13277702	 2.2847142495	 0.096505
H	-1.3248131537	-2.3398874093	 1.5978342162	 0.094159
H	-3.2148980067	-0.6995445757	 1.0980732519	 0.111291
H	-2.1374940923	 0.6820354389	 1.6409963546	 0.116079
H	-2.4257302492	-0.535268345	-1.618327509	 0.288632
143.7084	247.8359	265.1469	277.9506	349.2195	399.9961	455.3433	552.1923	636.9592	704.4909	821.0233	855.472	892.4136	934.7333	969.1385	1008.4852	1031.7649	1069.577	1082.9666	1118.9783	1158.9728	1188.3094	1224.1722	1236.627	1266.625	1319.5884	1322.4821	1389.0881	1437.2554	1473.514	1506.6932	3015.6444	3048.8463	3109.5081	3114.0484	3198.6482	3209.4582	3794.3723	3816.8918
OC1CC2CC12O	O[C@H]1C[C@H]2C[C@@]12O	
InChI=1S/C5H8O2/c6-4-1-3-2-5(3,4)7/h3-4,6-7H,1-2H2	InChI=1S/C5H8O2/c6-4-1-3-2-5(3,4)7/h3-4,6-7H,1-2H2/t3-,4-,5-/m0/s1
