17
gdb 3157	3.94397	2.62189	1.91641	1.7269	64.09	-0.2234	0.0832	0.3067	731.2122	0.14773	-309.686189	-309.679072	-309.678127	-309.717384	26.61	
C	-0.2664239095	 1.4686772896	 0.0495752108	-0.405805
C	 0.0238555439	-0.0224896161	-0.0355176024	-0.114565
C	 1.3093883171	-0.4607915944	-0.7770540448	-0.082463
O	 1.8219144006	-1.1244539341	 0.4004286128	-0.307869
C	 0.6920780437	-0.6997744613	 1.1642656655	 0.470608
C	 0.8337805326	-0.2344585026	 2.5772168458	-0.334618
C	 0.1221529498	-1.5436505234	 2.2526695957	-0.335083
H	 0.6132170423	 2.0218697799	 0.3941769577	 0.123471
H	-0.5564724943	 1.8667070623	-0.9288237351	 0.11695
H	-1.0870261486	 1.6753546159	 0.7452095631	 0.117666
H	-0.8622401677	-0.5651230833	-0.3786916643	 0.081859
H	 1.1783782812	-1.1577774351	-1.6122991438	 0.102331
H	 1.9605573507	 0.3644515704	-1.0933446538	 0.098299
H	 1.8222523253	-0.3011395962	 3.0191875606	 0.123162
H	 0.2412335384	 0.6103018825	 2.9140937905	 0.112081
H	-0.9567274041	-1.5911806487	 2.3651964447	 0.111099
H	 0.6445167985	-2.4656421954	 2.4850450972	 0.122878
58.8129	199.4507	209.5646	256.1918	348.8032	372.9034	513.7778	560.5353	746.6737	757.8649	861.6394	874.8614	895.4449	911.988	946.5733	976.5337	1017.5836	1046.9045	1064.778	1086.6725	1121.7204	1150.9136	1183.5831	1189.7873	1222.5459	1262.0392	1340.9876	1354.5863	1398.0134	1412.3246	1446.6561	1489.6426	1496.1266	1500.0213	1527.9423	3012.7057	3029.7469	3050.7883	3067.9171	3094.7235	3105.7041	3123.7086	3127.3609	3207.3068	3221.7003
CC1COC11CC1	C[C@H]1COC21CC2	
InChI=1S/C6H10O/c1-5-4-7-6(5)2-3-6/h5H,2-4H2,1H3	InChI=1S/C6H10O/c1-5-4-7-6(5)2-3-6/h5H,2-4H2,1H3/t5-/m0/s1
