14
gdb 4607	5.56743	1.57577	1.23068	4.2505	70.82	-0.1929	-0.0425	0.1504	924.084	0.109093	-378.745692	-378.738824	-378.73788	-378.776558	26.472	
N	 0.0313147755	 1.4374308871	 0.1438064654	-0.58896
C	-0.0014673149	 0.0329801931	 0.0310681752	 0.172942
C	-1.1354035457	-0.6953189788	-0.0018328672	-0.002448
O	-1.1512191395	-2.0587995192	-0.0019673952	-0.241468
C	 0.0172255869	-2.806264178	-0.0218448658	 0.382506
N	-0.0185679629	-4.0784235996	-0.0521498693	-0.544754
C	 1.2517878368	-2.0434173579	-0.0008140238	-0.145855
C	 1.2462004961	-0.6973727364	 0.0334828357	-0.095092
H	 0.6958822625	 1.8624405275	-0.4924578246	 0.2472
H	-0.8759275113	 1.865067008	 0.0053002894	 0.244093
H	-2.1382230222	-0.286660195	-0.0090182573	 0.117532
H	-0.9839219394	-4.40881532	-0.0600167733	 0.217101
H	 2.1651295377	-2.6238003642	-0.0045740312	 0.126965
H	 2.1755630004	-0.1369750565	 0.0716344021	 0.110238
103.6608	229.4792	313.3391	334.6071	349.8684	437.0804	483.6317	507.0308	633.2498	715.7772	749.2786	787.6351	808.6659	827.3142	832.9364	859.0396	956.4542	1001.5933	1055.2753	1129.9119	1174.3899	1203.1463	1295.1837	1301.113	1394.7471	1466.3714	1611.3822	1653.0519	1692.1471	1741.8101	3177.4197	3210.9642	3227.2309	3487.6553	3520.9176	3613.0748
NC1=COC(=N)C=C1	NC1=CC=C(OC1)[NH]	
InChI=1S/C5H6N2O/c6-4-1-2-5(7)8-3-4/h1-3,7H,6H2	InChI=1S/C5H7N2O/c6-4-1-2-5(7)8-3-4/h1-2,7H,3,6H2
