17
gdb 3602	5.56193	1.7792	1.5206	0.5503	65.38	-0.2215	0.0771	0.2986	841.684	0.148878	-305.831164	-305.823903	-305.822959	-305.862694	26.578	
C	-0.1766955531	 1.5049327877	-0.1353247703	-0.309439
N	 0.0038804912	 0.0709502272	 0.0430262732	-0.08318
C	 1.3365841634	-0.4821798886	-0.1572748425	-0.262066
C	 0.7324268492	-0.4327500792	 1.2075521473	-0.001261
C	 1.3009283001	 0.4507227213	 2.2736880591	 0.012111
C	 0.6614417843	 0.4793443388	 3.614817344	-0.246237
N	 1.9717907585	-0.1671921265	 3.4313532463	-0.323406
H	 0.7143681185	 2.1129324421	 0.0850570245	 0.102236
H	-0.4580865118	 1.6917888397	-1.1765283282	 0.124777
H	-0.9950646703	 1.850702413	 0.5039968581	 0.125625
H	 1.3943105608	-1.4144872997	-0.7135620295	 0.114794
H	 2.1532039076	 0.213671464	-0.3522705186	 0.107975
H	 0.3007242487	-1.3515692191	 1.6107704257	 0.080304
H	 1.8028496908	 1.3496135811	 1.9269358903	 0.093767
H	 0.6779610088	 1.387165725	 4.2111658845	 0.119963
H	-0.2140584557	-0.1474560438	 3.7674825653	 0.113415
H	 1.855641869	-1.178158373	 3.3940227408	 0.230624
62.4383	150.6465	219.0681	233.0833	327.8825	365.1811	439.2966	538.4553	733.2539	799.7778	854.4946	880.744	928.0858	951.7345	965.7081	1033.4262	1071.617	1092.1278	1118.6942	1128.8688	1140.6831	1155.7346	1168.0498	1203.4686	1241.4903	1253.3907	1295.4416	1331.9349	1340.4466	1450.3252	1454.5657	1488.7274	1502.3285	1509.0884	1516.2692	2979.9817	3068.0277	3074.1677	3081.7366	3103.5623	3105.2544	3146.1042	3169.434	3191.4871	3483.7798
CN1CC1C1CN1	CN1C[C@H]1[C@H]1CN1	
InChI=1S/C5H10N2/c1-7-3-5(7)4-2-6-4/h4-6H,2-3H2,1H3	InChI=1S/C5H10N2/c1-7-3-5(7)4-2-6-4/h4-6H,2-3H2,1H3/t4-,5+,7?/m1/s1
