17
gdb 1724	4.31028	2.03532	1.8277	0.7382	59.79	-0.2514	0.0603	0.3117	775.481	0.147041	-346.833689	-346.825959	-346.825015	-346.865395	28.16	
C	 0.0781456706	 1.5192912863	 0.1315050061	-0.389453
C	-0.024728307	 0.0065184053	-0.0801897606	-0.199233
C	 0.6791305959	-0.4828577219	-1.3411967131	 0.353974
O	 0.0899552866	 0.1742235892	-2.4370096524	-0.473738
C	 2.2309032228	-0.5070222725	-1.2566743959	-0.128059
O	 2.2289226813	-1.9365813858	-1.0791554799	-0.270583
C	 0.8325320638	-2.0246372307	-1.4238197016	-0.131208
H	 1.1203431965	 1.839348549	 0.240570992	 0.112705
H	-0.3507029493	 2.0573620144	-0.7168901873	 0.137517
H	-0.4553904711	 1.8214619221	 1.0374285424	 0.112231
H	 0.4006077048	-0.5300707985	 0.7756857113	 0.106889
H	-1.0791006183	-0.2885215443	-0.1488427778	 0.104631
H	 0.5389983121	-0.1063863235	-3.2413037849	 0.280126
H	 2.7217047269	-0.2049910835	-2.1948660532	 0.08583
H	 2.708898924	 0.0149126036	-0.4202134817	 0.107144
H	 0.2638005999	-2.6323451953	-0.7106003828	 0.105687
H	 0.6784937104	-2.4209658741	-2.4391393306	 0.085539
94.4533	121.4252	203.6965	226.363	296.033	349.8615	364.32	424.9596	485.4196	667.2233	790.6423	821.2799	895.1973	940.1952	989.0113	999.7681	1017.362	1029.2423	1058.7727	1124.467	1146.1464	1157.6149	1163.1287	1231.8572	1291.8761	1318.9699	1347.6011	1376.106	1409.1661	1417.9784	1477.7609	1496.7042	1502.9921	1509.0145	1528.4735	2977.7212	2989.9407	3030.6491	3039.3991	3058.7992	3061.2961	3071.004	3102.4754	3129.8677	3807.3073
CCC1(O)COC1	CCC1(O)COC1	
InChI=1S/C5H10O2/c1-2-5(6)3-7-4-5/h6H,2-4H2,1H3	InChI=1S/C5H10O2/c1-2-5(6)3-7-4-5/h6H,2-4H2,1H3
