13
gdb 2146	3.85814	3.21877	1.84763	3.0757	55.92	-0.2473	-0.0559	0.1914	653.1331	0.102496	-344.484341	-344.478222	-344.477278	-344.514346	22.742	
O	 0.1479778064	 1.3493780013	 0.2974686195	-0.438799
C	-0.0177001829	-0.0182188164	 0.0273953505	 0.059032
C	-1.4822678365	-0.4631632756	-0.1235526944	-0.289613
C	-1.4362019474	-1.410019712	-1.2998409471	-0.047482
C	-0.2655543281	-1.3919581252	-1.9548844218	-0.175101
C	 0.6302132043	-0.4136964339	-1.3109714781	 0.344816
O	 1.6586463065	 0.0796396113	-1.7195720415	-0.348633
H	 0.9753354138	 1.5998794034	-0.139459063	 0.292422
H	 0.4634925648	-0.6375477334	 0.8056020891	 0.094882
H	-1.8972693608	-0.9331148709	 0.7734839404	 0.12067
H	-2.1081151998	 0.4088234634	-0.3488792805	 0.143351
H	-2.2910708897	-2.0183541649	-1.576777136	 0.121574
H	-0.0087726807	-1.9410175569	-2.8513077172	 0.122882
97.4086	245.7344	302.5797	395.697	442.6916	497.0752	593.0316	698.7898	747.5515	776.9968	829.2802	937.7828	969.8944	995.7253	1034.1401	1108.8699	1128.1303	1172.9266	1199.5898	1235.5018	1304.4073	1354.9074	1368.925	1416.735	1471.7167	1636.5211	1811.2163	2942.3513	3043.649	3084.3437	3189.5361	3229.1041	3727.6063
OC1CC=CC1=O	O[C@H]1CC=CC1=O	
InChI=1S/C5H6O2/c6-4-2-1-3-5(4)7/h1-2,5,7H,3H2	InChI=1S/C5H6O2/c6-4-2-1-3-5(4)7/h1-2,5,7H,3H2/t5-/m0/s1
