14
gdb 3393	4.40539	2.65708	2.25992	3.9067	57.24	-0.2442	-0.0095	0.2346	638.3639	0.113444	-324.559324	-324.553021	-324.552077	-324.589309	23.592	
C	-0.0007645387	 1.5460084916	 0.0133395628	-0.420586
C	 0.0426536635	 0.0432490798	-0.1328287547	 0.015596
C	 0.6874488588	-0.7128651956	-1.2185104706	-0.042413
C	 1.9573035835	-0.0523161009	-1.7499031125	-0.379224
C	 2.4104727488	-0.0472670991	-0.28058882	 0.400612
O	 3.382689071	 0.3027848937	 0.3110176226	-0.294045
N	 1.2547376363	-0.7760282603	 0.2163617583	-0.195094
H	 0.8541821534	 2.0483521196	-0.4440655938	 0.136163
H	-0.912139345	 1.9341173084	-0.4531210811	 0.129692
H	-0.0215798306	 1.8197514358	 1.0726654615	 0.144158
H	-0.8334694562	-0.4492653093	 0.2842537028	 0.113861
H	 0.2412795373	-1.6021262653	-1.6480278004	 0.112526
H	 2.5768824745	-0.7272035436	-2.3461177776	 0.145355
H	 1.8766866834	 0.9075974851	-2.2652038873	 0.133399
126.0233	190.6049	261.8685	352.1011	477.0298	492.4114	597.9354	642.0835	711.7479	802.0383	839.9197	906.8893	960.2168	993.9075	1026.719	1050.0837	1065.7624	1103.1695	1152.172	1172.9507	1225.1725	1268.0286	1353.9685	1419.0855	1435.76	1457.3469	1489.7904	1503.7891	1915.2919	3045.5067	3071.3336	3108.3586	3122.6958	3124.9945	3141.1308	3188.1432
CC1C2CC(=O)N12	C[C@H]1[C@H]2CC(=O)N12	
InChI=1S/C5H7NO/c1-3-4-2-5(7)6(3)4/h3-4H,2H2,1H3	InChI=1S/C5H7NO/c1-3-4-2-5(7)6(3)4/h3-4H,2H2,1H3/t3-,4+,6?/m0/s1
