15
gdb 3082	3.6091	2.38157	1.9837	3.1103	61.92	-0.247	0.0144	0.2614	721.2184	0.124357	-304.683134	-304.675564	-304.674619	-304.714533	26.813	
C	 2.0112606373	-0.7983639761	 2.6286059336	-0.425866
C	 1.1381141951	-1.1186891386	 1.4364916231	 0.012551
C	 0.187451033	-0.1076240164	 0.8397094652	-0.175029
C	 0.1594925371	 1.228779234	 1.3805547647	 0.293163
N	 0.1348048015	 2.3089921303	 1.7953873358	-0.344372
N	 1.3613859545	-0.5923879399	 0.0997921805	-0.093902
C	 2.4699128663	 0.318195443	-0.1686992812	-0.324837
H	 2.9563734443	-1.3478294298	 2.5657599925	 0.131434
H	 2.2343638581	 0.2660428809	 2.7190880975	 0.148076
H	 1.5058226229	-1.1108876851	 3.5475088883	 0.136298
H	 0.7782554262	-2.147039795	 1.419864508	 0.107676
H	-0.7707860545	-0.4338163553	 0.443342871	 0.134233
H	 2.2650917438	 0.8419950355	-1.1065535529	 0.138843
H	 2.6541429326	 1.07121404	 0.6078534856	 0.130113
H	 3.3767969817	-0.2783004974	-0.3027887415	 0.131618
136.2119	153.6402	164.6392	176.6716	262.4614	346.3008	387.4159	486.7653	594.4052	623.6229	714.1232	789.5699	860.6482	967.6563	1028.4586	1045.4259	1117.175	1135.7768	1162.7971	1170.7289	1191.4791	1332.345	1360.5673	1401.4559	1422.8556	1457.2029	1486.7391	1487.7598	1500.1411	1509.1826	2344.7552	3018.3376	3045.5489	3090.9114	3105.8726	3107.2534	3117.5311	3139.8051	3142.2311
CC1C(C#N)N1C	C[C@H]1[C@@H](C#N)N1C	
InChI=1S/C5H8N2/c1-4-5(3-6)7(4)2/h4-5H,1-2H3	InChI=1S/C5H8N2/c1-4-5(3-6)7(4)2/h4-5H,1-2H3/t4-,5+,7?/m0/s1
