14
gdb 4938	6.86482	1.25737	1.0709	1.1072	60.05	-0.2021	0.0359	0.238	1037.4548	0.107961	-415.885142	-415.877448	-415.876504	-415.917441	27.658	
N	 0.0195451824	 1.3207766864	 0.1414473869	-0.588747
C	-0.0501703513	-0.047053147	 0.0482426626	 0.448572
N	-1.1133697063	-0.7908171007	 0.0280235943	-0.392676
C	-0.6028109162	-2.0908863731	 0.0108732054	 0.260583
C	-1.5083549724	-3.2742438306	-0.011199612	-0.189383
O	-0.7108205014	-4.4453382652	-0.0660173122	-0.419125
C	 0.7446223723	-2.0509166458	 0.013572694	-0.122543
O	 1.1212353165	-0.7142425237	 0.0392937135	-0.185497
H	 0.8415087952	 1.7299098597	-0.2781605245	 0.263865
H	-0.8396065536	 1.7753660606	-0.1296721227	 0.269775
H	-2.1478385827	-3.2570401487	 0.8863702764	 0.10718
H	-2.1827583592	-3.1968709955	-0.8796341908	 0.105812
H	-1.2974168784	-5.2061280228	-0.051304711	 0.291843
H	 1.5347610452	-2.7774131737	-0.00374405	 0.150341
57.2529	175.9848	179.9397	236.4944	296.4967	338.1131	368.4847	486.8044	599.632	634.5766	684.8196	707.0739	753.6182	778.632	968.9389	1010.3265	1049.0923	1080.03	1103.7814	1139.2773	1205.0642	1233.9019	1243.0224	1299.5002	1439.632	1475.6976	1512.8787	1604.0368	1658.2386	1685.203	2965.7328	2984.9567	3324.8335	3576.4695	3685.0723	3845.799
NC1=NC(CO)=CO1	Nc1nc(CO)co1	
InChI=1S/C4H6N2O2/c5-4-6-3(1-7)2-8-4/h2,7H,1H2,(H2,5,6)	InChI=1S/C4H6N2O2/c5-4-6-3(1-7)2-8-4/h2,7H,1H2,(H2,5,6)
