20
gdb 543	14.60008	1.12793	1.08923	0.	68.01	-0.3039	0.0917	0.3957	1142.2706	0.188559	-236.917873	-236.909445	-236.908501	-236.950436	29.423	
C	 0.0248844286	 1.5852487315	 0.0103312199	-0.378469
C	 0.0072532964	 0.0544998868	 0.0022838435	-0.163117
C	-1.4086140223	-0.5325498717	 0.0126368188	-0.156229
C	-1.4372535659	-2.06458302	 0.0047093433	-0.156229
C	-2.8531218088	-2.6516319797	 0.0150491232	-0.163116
C	-2.8707549538	-4.1823796331	 0.0069838282	-0.378469
H	 1.04749602	 1.9757253	 0.0027014013	 0.109294
H	-0.4923555513	 1.9914310006	-0.8662559663	 0.112236
H	-0.475549436	 1.9819460403	 0.9009060923	 0.112236
H	 0.5443986651	-0.3143241509	-0.8815086259	 0.092688
H	 0.5611194724	-0.3237351468	 0.8716608201	 0.092688
H	-1.9467815834	-0.1637797197	 0.8970249642	 0.089337
H	-1.9635077227	-0.1543887531	-0.8573313925	 0.089337
H	-0.8990742807	-2.4333565546	-0.8796702578	 0.089336
H	-0.8823718744	-2.4427422749	 0.8746856858	 0.089337
H	-3.390273248	-2.2828148636	 0.8988408141	 0.092688
H	-3.4069803018	-2.2733869523	-0.8543289534	 0.092687
H	-3.8933655266	-4.5728569709	 0.0147344511	 0.109294
H	-2.3704310136	-4.5790683939	-0.8836563906	 0.112236
H	-2.3534081334	-4.5885738241	 0.8835027407	 0.112235
77.4322	105.0963	129.0482	153.8711	238.2473	250.8913	293.0479	364.6455	462.7587	731.6988	745.4459	807.7427	890.698	905.8167	907.0626	1012.2917	1014.7372	1053.8753	1071.3723	1076.8939	1158.8132	1210.6701	1254.9277	1274.1712	1311.9906	1331.527	1338.1208	1344.9354	1392.4817	1400.849	1411.15	1414.6853	1483.4121	1484.237	1491.1801	1499.2242	1499.4793	1500.1213	1509.5034	1515.7777	3001.0013	3004.2699	3014.9825	3019.5109	3022.3212	3027.8388	3027.9076	3032.6477	3048.4125	3062.2924	3093.7189	3094.5144	3099.1423	3099.1451
CCCCCC	CCCCCC	
InChI=1S/C6H14/c1-3-5-6-4-2/h3-6H2,1-2H3	InChI=1S/C6H14/c1-3-5-6-4-2/h3-6H2,1-2H3
