14
gdb 1448	6.67183	1.33195	1.2174	3.7723	56.27	-0.2481	-0.0266	0.2215	961.1479	0.111551	-361.754326	-361.746142	-361.745197	-361.788061	26.774	
C	 0.1650261734	 1.3866962845	-0.2423746778	-0.334954
N	 0.0329536831	-0.0213632862	 0.0826413222	-0.309215
C	 0.3346560516	-0.5197067848	 1.3124526571	 0.402205
O	 0.7397642462	 0.1588491224	 2.2402689227	-0.373715
C	 0.1484730968	-2.0283123598	 1.4663528187	-0.388215
C	 1.4203936878	-2.672165987	 1.9993545782	 0.166423
O	 1.8556164798	-3.7200889265	 1.6009098476	-0.238768
H	 0.4996917772	 1.8977609924	 0.6607736075	 0.175275
H	 0.9025174473	 1.544219979	-1.0369162975	 0.131478
H	-0.7928159341	 1.810626671	-0.562173585	 0.129895
H	-0.2805650731	-0.6564544083	-0.6319312293	 0.251298
H	-0.6248942979	-2.1690234167	 2.2332060652	 0.158713
H	-0.165226664	-2.5466601913	 0.5570719508	 0.116304
H	 1.9151880858	-2.0870596586	 2.8005963596	 0.113278
39.539	81.2741	98.6635	143.7324	226.0605	299.8456	410.2298	455.0396	479.6015	621.6301	729.0339	795.6813	903.881	1009.7641	1054.3671	1092.4706	1153.3598	1169.9224	1175.3066	1241.8316	1319.3336	1404.1525	1438.4464	1444.3552	1492.6467	1499.9115	1562.5011	1773.7714	1836.0697	2940.1153	3031.7329	3034.4903	3085.8005	3109.7766	3156.9653	3653.8958
CNC(=O)CC=O	CNC(=O)CC=O	
InChI=1S/C4H7NO2/c1-5-4(7)2-3-6/h3H,2H2,1H3,(H,5,7)	InChI=1S/C4H7NO2/c1-5-4(7)2-3-6/h3H,2H2,1H3,(H,5,7)
