13
gdb 2910	7.10696	2.03428	1.61336	3.6279	57.52	-0.2452	-0.023	0.2221	722.7492	0.103796	-340.671263	-340.664995	-340.664051	-340.70193	21.516	
O	-0.0503800975	-0.0404475866	 0.0002208878	-0.310954
C	-0.0104939675	 1.1688213772	 0.0093538475	 0.149662
N	 1.1440191452	 1.9094017708	 0.0029555311	-0.078267
C	 1.2511456865	 3.3756479808	 0.0133610435	-0.202559
C	 2.7995034232	 3.5643843193	-0.0020659388	-0.166605
N	 3.395417704	 2.2166382575	-0.0188834398	-0.252511
C	 2.438887946	 1.3804451017	-0.0150918038	 0.092123
H	-0.9132324185	 1.8091068159	 0.0240122043	 0.085204
H	 0.7643653781	 3.808897095	-0.8652287245	 0.130143
H	 0.7838018463	 3.7948582942	 0.9091525776	 0.130139
H	 3.1366644176	 4.1212872449	-0.8817255994	 0.127665
H	 3.1558333591	 4.1078452904	 0.8784379444	 0.127666
H	 2.5457337576	 0.303082709	-0.0246172998	 0.168295
74.73	151.5346	229.5121	248.5209	502.6609	514.7143	762.5416	811.9287	830.6996	926.6777	956.1244	967.0034	969.3819	1031.2638	1113.6895	1217.7486	1219.497	1252.5664	1287.1376	1318.3406	1329.5095	1416.0103	1439.9527	1496.8545	1525.2932	1703.5432	1800.151	2950.9612	3046.1259	3055.5893	3076.366	3098.6239	3236.1414
O=CN1CCN=C1	O=CN1CCN=C1	
InChI=1S/C4H6N2O/c7-4-6-2-1-5-3-6/h3-4H,1-2H2	InChI=1S/C4H6N2O/c7-4-6-2-1-5-3-6/h3-4H,1-2H2
