11
gdb 66	8.55919	3.89952	2.91869	1.3582	44.03	-0.2665	0.0336	0.3001	444.6452	0.088908	-231.108368	-231.102292	-231.101348	-231.137061	21.306	
C	-0.0075427844	 1.5556614378	 0.0865063259	-0.386811
C	 0.0120754086	 0.0209655323	 0.0493591643	-0.009018
O	-1.2915025136	-0.5278512765	 0.221263864	-0.413331
C	 0.6509336248	-0.477186509	-1.1743050686	 0.308396
C	 1.1390267326	-0.8657734317	-2.2020551784	-0.47881
H	 1.0082424273	 1.9596945845	 0.0492973349	 0.127277
H	-0.5627224526	 1.9519201019	-0.7697808526	 0.118674
H	-0.4932816104	 1.8892943786	 1.0070412324	 0.126769
H	 0.5781196674	-0.3446490661	 0.9145886439	 0.121251
H	-1.7851653231	-0.3590326172	-0.5890939985	 0.284148
H	 1.5807887733	-1.2236506046	-3.0991944674	 0.201455
182.9765	209.6793	258.1574	292.3219	391.7699	546.6637	573.6238	632.224	671.9852	800.5686	930.1419	1038.1139	1090.4621	1127.1816	1283.3089	1336.7752	1399.1923	1417.7161	1487.9356	1490.8269	2231.6537	3038.6974	3042.5149	3115.5746	3128.7552	3503.3282	3804.1351
CC(O)C#C	C[C@@H](O)C#C	
InChI=1S/C4H6O/c1-3-4(2)5/h1,4-5H,2H3	InChI=1S/C4H6O/c1-3-4(2)5/h1,4-5H,2H3/t4-/m1/s1
