15
gdb 4572	5.67159	1.51551	1.20487	1.4125	71.27	-0.2256	-0.0193	0.2063	964.1057	0.120867	-362.742487	-362.735518	-362.734574	-362.773798	26.29	
C	-0.0531927404	 1.5136713363	-0.0166509657	-0.498344
C	 0.001109903	 0.0081074896	 0.0121351346	 0.259261
C	 0.0029544874	-0.7467906632	-1.155551734	-0.068936
N	 0.0496374026	-2.0848698244	-1.1946618864	-0.363321
C	 0.0974298441	-2.7317309001	-0.0394190002	 0.430039
O	 0.1444392607	-4.0813557417	-0.0801717378	-0.419645
C	 0.1014456692	-2.0925437391	 1.2060882908	-0.201811
C	 0.0525305194	-0.7111245759	 1.215524372	-0.135238
H	 0.8229346869	 1.9587492147	 0.4686425727	 0.131145
H	-0.0877554134	 1.8862779798	-1.0441270339	 0.126503
H	-0.9380255173	 1.8959191704	 0.5050583221	 0.131161
H	-0.0355555296	-0.2493676825	-2.1227288842	 0.102656
H	 0.1326299705	-4.3159567405	-1.0185911957	 0.296084
H	 0.1417963709	-2.6782276585	 2.1160364417	 0.10911
H	 0.0539386861	-0.1791500749	 2.162891344	 0.101334
77.9674	144.4605	303.0494	330.9313	431.4134	434.3789	489.931	506.1473	569.8144	659.952	760.5001	777.165	855.1036	877.9377	949.6365	985.8214	1003.9972	1041.5462	1069.2999	1147.6776	1193.4192	1245.0106	1322.2756	1335.6447	1365.7408	1418.4026	1440.7053	1485.0103	1502.0857	1531.1283	1630.1367	1656.8961	3028.2908	3080.0345	3111.0358	3145.6527	3169.0069	3211.0725	3766.2751
CC1=CN=C(O)C=C1	Cc1cnc(O)cc1	
InChI=1S/C6H7NO/c1-5-2-3-6(8)7-4-5/h2-4H,1H3,(H,7,8)	InChI=1S/C6H7NO/c1-5-2-3-6(8)7-4-5/h2-4H,1H3,(H,7,8)
