19
gdb 3155	3.63385	2.62422	1.8503	0.1622	71.38	-0.2602	0.0929	0.3531	773.5312	0.171871	-273.764529	-273.757266	-273.756322	-273.7955	28.11	
C	-0.5559059844	 1.2926682659	 0.0463903112	-0.411214
C	 0.1009988477	-0.0744056636	-0.0637832046	-0.017724
C	 1.4739507824	-0.1829975027	-0.794477436	-0.223227
C	 1.9760916074	-1.1438713771	 0.3215324564	-0.296704
C	 0.7785130399	-0.701692532	 1.1725559763	 0.379744
C	 0.8718166889	-0.0811088748	 2.5379296077	-0.316879
C	 0.1527112531	-1.3980964362	 2.340710043	-0.331671
H	 0.1376231136	 2.0316765678	 0.4621602178	 0.113761
H	-0.8772391952	 1.6518075154	-0.9377034048	 0.112308
H	-1.4424234001	 1.2650859161	 0.690863454	 0.111162
H	-0.6096831165	-0.7898386315	-0.4966903494	 0.067653
H	 1.4658203584	-0.5646766229	-1.8180850577	 0.092735
H	 2.0091233029	 0.7713443645	-0.7824918769	 0.098093
H	 1.9158099474	-2.1965194507	 0.0255862536	 0.097746
H	 2.9734412233	-0.9549522495	 0.7285211751	 0.095006
H	 1.8350619203	-0.0932251672	 3.0389346646	 0.106663
H	 0.271992182	 0.7977198227	 2.7524504529	 0.109249
H	-0.9308143602	-1.4008518086	 2.4170935932	 0.106278
H	 0.6249240193	-2.3024751256	 2.7124783536	 0.107021
85.0576	207.3592	226.1267	254.024	325.2004	360.1993	481.9402	537.3832	684.1962	764.301	784.2833	860.1513	885.7886	892.4225	912.5361	938.9784	947.8764	986.2175	1046.9361	1070.4349	1074.3128	1098.9553	1147.9871	1174.8424	1188.6272	1198.9078	1237.9768	1257.1554	1281.4126	1287.0028	1364.5601	1378.9258	1406.9533	1463.2433	1479.2978	1492.7989	1497.4904	1498.2355	1506.7328	3018.6689	3022.8257	3041.4738	3053.6488	3085.9184	3088.0951	3094.9474	3111.2324	3115.9195	3121.6146	3192.7121	3208.6352
CC1CCC11CC1	C[C@H]1CCC21CC2	
InChI=1S/C7H12/c1-6-2-3-7(6)4-5-7/h6H,2-5H2,1H3	InChI=1S/C7H12/c1-6-2-3-7(6)4-5-7/h6H,2-5H2,1H3/t6-/m0/s1
