13
gdb 4745	5.30069	1.43166	1.1287	5.763	68.81	-0.2077	-0.0527	0.155	974.1576	0.097171	-394.826315	-394.819313	-394.818369	-394.857462	25.911	
N	-0.0262674329	 1.4082808197	 0.1493606404	-0.59706
C	-0.032080853	 0.0227774922	 0.0479101265	 0.304554
C	-1.1261660996	-0.8370927202	 0.0220494835	-0.16626
N	-0.5852417744	-2.0925686132	-0.0108505868	-0.263078
C	 0.7759373586	-1.9641643085	 0.0004866794	 0.257963
C	 1.6350785753	-3.1416891965	-0.0289216325	 0.08558
O	 2.8432317087	-3.1387865777	-0.0229521467	-0.262678
N	 1.1262689248	-0.6817370595	 0.0325180002	-0.32272
H	 0.8763035451	 1.7921551019	-0.0971021565	 0.258924
H	-0.7716202128	 1.8705950135	-0.3515675355	 0.247182
H	-2.1889892637	-0.663924403	 0.0320395164	 0.133869
H	-1.0987790089	-2.9586535796	-0.0386935357	 0.273589
H	 1.0564168727	-4.0971487689	-0.0595875328	 0.050136
143.4011	177.5455	222.4988	261.8808	369.0775	407.1488	494.8409	546.0317	640.9474	683.268	688.9351	702.2295	762.2404	808.1289	1006.534	1008.9336	1036.4469	1113.5462	1121.1458	1238.9121	1338.8722	1399.0507	1445.252	1479.8054	1538.2944	1600.8672	1647.9598	1800.6319	2828.3052	3277.2766	3555.7025	3652.1638	3655.0686
NC1=CNC(C=O)=N1	Nc1c[nH]c(C=O)n1	
InChI=1S/C4H5N3O/c5-3-1-6-4(2-8)7-3/h1-2H,5H2,(H,6,7)	InChI=1S/C4H5N3O/c5-3-1-6-4(2-8)7-3/h1-2H,5H2,(H,6,7)
