10
gdb 1366	8.95139	1.45747	1.26307	5.8999	54.85	-0.2937	-0.0832	0.2104	846.9512	0.064294	-322.161948	-322.154824	-322.15388	-322.193705	23.798	
O	-0.0753717771	-0.1210427731	 0.0014541432	-0.246684
C	-0.0558850092	 1.0838007043	 0.0058116824	 0.24736
C	 1.2416684511	 1.9079865734	-0.0009322201	-0.447621
C	 2.447649675	 1.0899166386	-0.0140996139	 0.275739
N	 3.4180810092	 0.4651944191	-0.0245799391	-0.288162
C	-1.2568930103	 1.8946421917	 0.0179405877	 0.236902
C	-2.2408939186	 2.587278447	 0.0280372129	-0.376492
H	 1.2276949903	 2.572604895	-0.8733473404	 0.185962
H	 1.2415474976	 2.5647495122	 0.8775437341	 0.185991
H	-3.1239784579	 3.1801768216	 0.0371101932	 0.227004
48.795	119.493	185.7284	235.2132	372.6041	389.5027	493.2672	573.1463	609.4523	667.1565	719.1889	838.6394	942.0519	959.4294	1091.3896	1213.1321	1329.836	1431.3007	1794.23	2215.8937	2378.068	3044.2512	3079.628	3490.3196
O=C(CC#N)C#C	O=C(CC#N)C#C	
InChI=1S/C5H3NO/c1-2-5(7)3-4-6/h1H,3H2	InChI=1S/C5H3NO/c1-2-5(7)3-4-6/h1H,3H2
