18
gdb 2035	4.27598	2.47731	2.19304	1.5782	67.38	-0.225	0.0879	0.3129	708.1312	0.160203	-289.802108	-289.795116	-289.794172	-289.832282	27.698	
C	-0.0396723817	 1.5480648826	 0.0856832936	-0.444393
C	 0.0140199885	 0.0250825471	 0.0233691099	 0.352019
C	-1.3633589592	-0.5842507846	-0.2334705803	-0.445625
C	 1.1151048371	-0.6005772809	-0.9270723313	-0.273553
C	 1.7269601165	-1.2919219015	 0.2930567387	-0.034577
N	 2.1290281233	-0.2045721769	 1.2213982623	-0.339865
C	 0.7248295464	-0.6783745552	 1.2026041611	-0.080555
H	 0.9440123314	 1.9552824942	 0.3303027581	 0.135459
H	-0.3603889992	 1.9675577006	-0.8750184481	 0.105669
H	-0.752257636	 1.8854599721	 0.8479460104	 0.10316
H	-1.76325707	-0.2523619245	-1.1981357812	 0.113485
H	-1.3210175199	-1.6789985193	-0.2455185693	 0.109073
H	-2.0765352206	-0.2854558588	 0.5439209053	 0.109503
H	 0.6873229679	-1.2911014811	-1.6578915731	 0.096309
H	 1.7769407953	 0.1071399713	-1.4329028584	 0.101282
H	 2.2099557954	-2.2603838852	 0.3388162992	 0.087822
H	 2.5799688579	-0.6459544787	 2.0226698048	 0.224976
H	 0.2598412468	-1.0694192813	 2.1012225182	 0.079809
187.4876	233.1661	260.5997	271.3242	332.269	372.2592	433.0782	517.5681	623.5236	772.3584	810.5015	837.5186	844.6798	923.2457	933.2073	958.9478	964.4144	984.9443	1015.9122	1041.2068	1086.158	1108.6326	1151.3659	1188.4641	1219.7704	1252.601	1268.0489	1308.2249	1330.2689	1379.5465	1398.4304	1419.5029	1475.2385	1485.6532	1489.2597	1501.3946	1512.3343	3019.1006	3025.0101	3059.0321	3080.8732	3086.8796	3092.3807	3116.4022	3124.4544	3166.9126	3188.1602	3468.5321
CC1(C)CC2NC12	CC1(C)C[C@H]2N[C@@H]12	
InChI=1S/C6H11N/c1-6(2)3-4-5(6)7-4/h4-5,7H,3H2,1-2H3	InChI=1S/C6H11N/c1-6(2)3-4-5(6)7-4/h4-5,7H,3H2,1-2H3/t4-,5-/m1/s1
