14
gdb 551	9.7394	2.33341	2.0649	0.7819	59.52	-0.2544	0.0501	0.3045	624.2663	0.119752	-233.25376	-233.247695	-233.24675	-233.283102	22.582	
C	-0.3971819174	-1.1718567429	-0.4731794931	-0.453147
C	-0.1736831745	-0.0213599668	-0.2010536339	 0.303421
C	 0.1150288628	 1.3532832981	 0.1488306656	-0.136826
C	-0.0251825895	 1.8074331338	 1.6394582406	-0.215468
C	 1.2411122644	 2.6830729964	 1.4504051755	-0.216238
C	 1.604112083	 1.8298818722	 0.2069024143	-0.215473
H	-0.5988271094	-2.1848988538	-0.7182615271	 0.19175
H	-0.4595229458	 2.0295033845	-0.4940397666	 0.100743
H	-0.9591709688	 2.2966722289	 1.9235104338	 0.103451
H	 0.1566365357	 0.968700723	 2.3157705327	 0.114101
H	 0.9865697867	 3.7112077983	 1.1770133126	 0.104419
H	 1.9615437167	 2.7111451845	 2.270209453	 0.101715
H	 2.2645847979	 0.9977472952	 0.4623599096	 0.114101
H	 1.9976211881	 2.3374111886	-0.6762397369	 0.103451
127.8134	171.8945	252.7767	506.1338	507.7142	584.9831	617.1759	624.3128	747.9029	786.8959	897.1702	935.4787	942.2334	964.3368	1023.8136	1083.6463	1124.2136	1204.0801	1236.0181	1246.0521	1255.3066	1276.4389	1280.5655	1356.6559	1477.9932	1487.199	1508.3796	2231.5292	3041.7786	3060.1375	3066.1191	3070.4227	3107.8169	3122.5627	3131.9263	3505.4102
C#CC1CCC1	C#CC1CCC1	
InChI=1S/C6H8/c1-2-6-4-3-5-6/h1,6H,3-5H2	InChI=1S/C6H8/c1-2-6-4-3-5-6/h1,6H,3-5H2
