12
gdb 605	6.63385	3.00975	2.37975	3.0219	51.35	-0.2579	0.0112	0.2692	543.9463	0.096563	-265.391486	-265.38548	-265.384535	-265.420818	21.063	
C	-0.12403474	 1.4888443788	-0.105717728	-0.322756
N	 0.0193765426	 0.041902498	 0.0240408763	-0.070981
C	 1.3407681085	-0.5180750387	-0.1666546526	-0.232265
C	 0.7204413201	-0.4863629621	 1.2011052897	-0.137246
C	 1.2768805646	 0.3991231231	 2.1958100422	 0.283077
N	 1.6972721286	 1.1066540673	 3.0089727407	-0.333923
H	 0.7522390771	 2.055233504	 0.2420200975	 0.128694
H	-0.2957573549	 1.7193587902	-1.1606780298	 0.134742
H	-0.9967688542	 1.8141805176	 0.4668281274	 0.14073
H	 1.393897495	-1.4638676176	-0.6981116459	 0.135402
H	 2.1728927624	 0.1627847714	-0.338126877	 0.133901
H	 0.2904593102	-1.394035512	 1.6150097395	 0.140623
154.5981	189.3112	237.7762	362.0212	375.863	555.0155	612.5924	736.9385	817.9054	906.6144	1021.0796	1028.8027	1106.9844	1121.6068	1130.4474	1174.8146	1208.4112	1321.3964	1368.1776	1454.1435	1491.4346	1493.7075	1509.2732	2349.4453	2999.0382	3089.0937	3100.3388	3123.2513	3151.8254	3194.1492
CN1CC1C#N	CN1C[C@H]1C#N	
InChI=1S/C4H6N2/c1-6-3-4(6)2-5/h4H,3H2,1H3	InChI=1S/C4H6N2/c1-6-3-4(6)2-5/h4H,3H2,1H3/t4-,6?/m1/s1
