10
gdb 3837	5.79353	3.10629	2.08471	4.8366	52.72	-0.2536	-0.0741	0.1795	563.4841	0.069073	-351.639205	-351.633977	-351.633032	-351.668318	19.059	
N	-0.0522270155	 1.2571943553	 0.2099572035	-0.471815
C	-0.0595477385	 0.0242819571	-0.0840004013	 0.397829
N	-1.2486024809	-0.7027560909	-0.1972491797	-0.241237
C	-1.1229698806	-1.9634933511	-0.0161929601	 0.108646
N	 0.0904817706	-2.5542234922	 0.2213281074	-0.23877
N	 1.2491852092	-1.9050679531	-0.1786509123	-0.034961
N	 1.1782211504	-0.673296593	-0.3613182569	-0.192487
H	 0.913794806	 1.5916332239	 0.2050620886	 0.235163
H	-1.9822355265	-2.6303657646	-0.0726703018	 0.151955
H	 0.1973985757	-3.5573633116	 0.2314995425	 0.285677
109.2357	406.3648	419.0138	509.3985	588.6069	613.8746	661.6073	786.3411	821.7006	895.8157	914.3684	955.5113	1021.4267	1069.8631	1151.6065	1300.7665	1394.4561	1429.6242	1601.5903	1689.2806	1733.2589	3145.1575	3470.5998	3630.1454
N=C1N=CNN=N1	[NH][C]1[N][CH]NN=N1	
InChI=1S/C2H3N5/c3-2-4-1-5-7-6-2/h1H,(H2,3,4,5,6)	InChI=1S/C2H3N5/c3-2-4-1-5-7-6-2/h1H,(H2,3,4,5,6)
