11
gdb 914	6.10992	2.93275	1.98159	2.5204	55.13	-0.2379	-0.0605	0.1774	590.8998	0.082644	-335.656557	-335.651353	-335.650409	-335.685593	19.148	
N	-0.1190484893	 1.3259610912	 0.0086807199	-0.557754
C	 0.0232458925	 0.062361896	 0.0009387848	 0.420482
N	-1.1473915408	-0.7317457044	 0.0034043226	-0.283853
C	-1.0935245663	-2.0729909813	-0.0040669544	 0.127672
N	 0.0161206338	-2.7499786692	-0.0140742754	-0.285308
C	 1.1424645914	-1.952681038	-0.0163283097	 0.074984
N	 1.2150423175	-0.6594249642	-0.0098146457	-0.284617
H	 0.802345689	 1.7604606977	 0.0057610476	 0.230845
H	-2.0269686135	-0.2336477179	 0.0111631994	 0.280752
H	-2.0487649769	-2.5938270057	-0.0013392322	 0.147136
H	 2.0833274026	-2.5005285143	-0.024696037	 0.129661
126.1047	362.8061	444.6325	487.0945	562.4011	694.1264	714.7803	781.0795	845.4869	863.3095	980.3769	983.0557	1036.9347	1050.9884	1104.3244	1217.1224	1301.9765	1397.6987	1424.5513	1479.9821	1565.5114	1668.3809	1746.7482	3153.3772	3164.6296	3514.3404	3604.5014
N=C1NC=NC=N1	[NH]C1=NC=NCN1	
InChI=1S/C3H4N4/c4-3-6-1-5-2-7-3/h1-2H,(H2,4,5,6,7)	InChI=1S/C3H5N4/c4-3-6-1-5-2-7-3/h1,4H,2H2,(H,5,6,7)
