14
gdb 4888	4.97167	1.51088	1.20582	3.0509	61.84	-0.1863	0.0412	0.2275	958.9639	0.107013	-415.86571	-415.857977	-415.857033	-415.898164	27.526	
C	-0.1092995511	 1.3655023489	 0.107620125	-0.255475
O	 0.5795631255	 0.1338932226	-0.1559095996	-0.264927
C	 0.8870343402	-0.5877529972	 0.9192835251	 0.395493
C	 0.6829634057	-1.8726966371	 1.222526099	-0.222444
N	 1.3860145542	-2.1095380566	 2.4161446084	-0.333914
C	 1.9244467979	-0.9319849324	 2.8824332808	 0.47258
N	 2.5384506852	-0.7538065905	 3.9760548581	-0.601737
O	 1.6550082203	 0.0189564573	 1.9068075795	-0.251132
H	 0.5016541022	 2.0291167318	 0.7256725438	 0.14642
H	-0.2873180729	 1.8244726582	-0.8651506138	 0.141723
H	-1.0642900059	 1.1702698094	 0.6089366784	 0.126965
H	 0.162249469	-2.6418406176	 0.6820885069	 0.148844
H	 1.2876769079	-2.9103775118	 3.0133791864	 0.274063
H	 2.8406876017	 0.2115672549	 4.0690568321	 0.223541
69.6013	133.7723	157.9398	176.9027	298.0987	385.579	417.6498	531.7837	603.6506	658.8619	705.1369	717.3814	742.8678	769.1663	935.5809	954.0308	1029.2437	1049.8093	1098.0101	1173.146	1185.8528	1221.5218	1310.4106	1371.3753	1399.4177	1477.3137	1486.9884	1503.9087	1752.6246	1809.0331	3029.5814	3108.65	3153.5919	3304.1907	3548.1707	3702.5392
COC1=CNC(=N)O1	COC1=CN[C@H]([NH])O1	
InChI=1S/C4H6N2O2/c1-7-3-2-6-4(5)8-3/h2H,1H3,(H2,5,6)	InChI=1S/C4H7N2O2/c1-7-3-2-6-4(5)8-3/h2,4-6H,1H3/t4-/m0/s1
