12
gdb 3801	7.97015	2.13437	1.70157	2.7579	52.26	-0.2247	-0.0013	0.2234	688.7394	0.09173	-356.679691	-356.673566	-356.672621	-356.709894	21.518	
C	 0.0047926504	 1.4092616578	-0.0280764279	-0.238479
O	-0.0017186532	-0.0179508916	 0.0056978784	-0.269831
C	 0.5902194262	-0.624919462	-1.032245497	 0.412492
C	 0.7111768558	-1.9855121882	-1.2261094157	-0.200123
N	 1.3789063724	-2.059460114	-2.4058991034	-0.140531
N	 1.6540154318	-0.8529625959	-2.9100967849	-0.126896
N	 1.1708892616	 0.0294119995	-2.0687103585	-0.275733
H	 1.0277805236	 1.7982406683	-0.0381704272	 0.138134
H	-0.5192967151	 1.7845932311	-0.9125991662	 0.138107
H	-0.5106149022	 1.7278473712	 0.8788164379	 0.129158
H	 0.3976999833	-2.8433301287	-0.6591530562	 0.148741
H	 1.6714551453	-2.8804364874	-2.9111984892	 0.284961
90.911	172.188	242.5303	345.9587	499.9508	572.2314	686.0153	690.4932	717.6803	755.2967	985.2424	1011.128	1059.9291	1092.0294	1137.8955	1180.1365	1207.7235	1277.7629	1346.592	1353.5119	1466.2951	1480.7505	1500.9776	1515.082	1628.2635	3036.4113	3104.8554	3147.1086	3301.4643	3658.4456
COC1=CNN=N1	COc1c[nH]nn1	
InChI=1S/C3H5N3O/c1-7-3-2-4-6-5-3/h2H,1H3,(H,4,5,6)	InChI=1S/C3H5N3O/c1-7-3-2-4-6-5-3/h2H,1H3,(H,4,5,6)
