16
gdb 1869	5.87842	1.96118	1.5538	3.8461	60.89	-0.2362	0.0379	0.2741	793.3054	0.138559	-325.833302	-325.826478	-325.825534	-325.863985	25.453	
C	-0.0509804943	 1.5496367559	 0.0064859626	-0.405397
C	 0.0604117166	 0.0277944596	 0.0064215935	 0.034502
C	 0.904345628	-0.5383681876	-1.1631715436	-0.172301
N	 1.3847853384	-1.7985383287	-0.6276452532	-0.299911
C	 1.3844765564	-1.8782724553	 0.741795956	 0.399336
O	 1.8319310239	-2.7902970493	 1.4006675861	-0.378562
C	 0.7316605749	-0.587125132	 1.2478136645	-0.337054
H	 0.9352502018	 2.01627763	 0.1096092911	 0.118141
H	-0.4995898897	 1.9161541736	-0.9233752175	 0.116518
H	-0.6737104001	 1.8994366873	 0.8357519666	 0.12235
H	-0.94429489	-0.4029993279	-0.0815679422	 0.089225
H	 0.3081893094	-0.6862904156	-2.0696133084	 0.111522
H	 1.7322938394	 0.1425579957	-1.4153178583	 0.10082
H	 1.8970301832	-2.4758863244	-1.1701911046	 0.249177
H	 1.5289517023	 0.0601760362	 1.6360193509	 0.123543
H	 0.0498878599	-0.7953136374	 2.0742852367	 0.128092
106.711	167.2127	237.4121	285.2036	410.1897	487.4584	491.0041	533.1263	619.1414	697.0605	839.1507	870.4934	905.3884	949.7788	963.6677	1067.5601	1081.2597	1116.4785	1161.9802	1191.2078	1242.6161	1261.4148	1277.3821	1334.3942	1354.0179	1377.1841	1414.292	1446.979	1470.3082	1497.6724	1499.4424	1533.3499	1833.7964	2979.5187	3027.4008	3028.4067	3039.3723	3063.6893	3095.0076	3103.4192	3118.803	3640.3068
CC1CNC(=O)C1	C[C@H]1CNC(=O)C1	
InChI=1S/C5H9NO/c1-4-2-5(7)6-3-4/h4H,2-3H2,1H3,(H,6,7)	InChI=1S/C5H9NO/c1-4-2-5(7)6-3-4/h4H,2-3H2,1H3,(H,6,7)/t4-/m1/s1
