16
gdb 4348	3.76332	1.81408	1.23479	3.1694	75.95	-0.2092	-0.0124	0.1968	960.766	0.132653	-342.850952	-342.843504	-342.84256	-342.882762	28.114	
C	-0.0121688262	 1.517432972	 0.0087826445	-0.495954
C	-0.0013787901	 0.0101159595	 0.0068902054	 0.284329
C	-0.0878832864	-0.713429361	-1.1840420622	-0.085669
N	-0.085758341	-2.0475732358	-1.2409411396	-0.262143
C	 0.0065405936	-2.7216431221	-0.1010842984	-0.054005
C	 0.1027846799	-2.1110458338	 1.1605371663	 0.282787
N	 0.2598206421	-2.8740388818	 2.3161321787	-0.590882
C	 0.0940618459	-0.7152195883	 1.1930691842	-0.229211
H	 0.9061807346	 1.9231357374	 0.4478669449	 0.132359
H	-0.0996653429	 1.9120882249	-1.0068736515	 0.127859
H	-0.8502768965	 1.9112794864	 0.5946754345	 0.13025
H	-0.1648582546	-0.1894067824	-2.1341097222	 0.092797
H	 0.0071730687	-3.8090144093	-0.1727079709	 0.089033
H	-0.0790016249	-3.8227435129	 2.2454118729	 0.249699
H	-0.0566897649	-2.431562347	 3.1667077609	 0.247446
H	 0.1657752727	-0.196703816	 2.1465591927	 0.081308
59.9494	205.8237	230.4937	280.0671	301.5331	417.7082	464.6861	535.5447	550.1386	560.6459	625.2988	735.3146	740.591	886.5452	915.438	937.732	967.8278	1021.3016	1038.8626	1064.46	1108.0017	1192.6176	1215.5475	1308.7037	1337.1261	1360.476	1414.0576	1469.5891	1485.3527	1495.5711	1513.5909	1610.7195	1639.6476	1659.326	3030.859	3084.1962	3115.2567	3125.5186	3148.2307	3151.6192	3561.9479	3659.8572
CC1=CN=CC(N)=C1	Cc1cncc(N)c1	
InChI=1S/C6H8N2/c1-5-2-6(7)4-8-3-5/h2-4H,7H2,1H3	InChI=1S/C6H8N2/c1-5-2-6(7)4-8-3-5/h2-4H,7H2,1H3
