9
gdb 3917	8.43982	2.04886	1.64864	4.161	47.99	-0.2758	-0.0741	0.2017	657.5025	0.05408	-375.351387	-375.345698	-375.344753	-375.381075	19.226	
O	-0.0422955926	-0.0254723303	-0.0006779243	-0.249827
C	 0.0072350957	 1.1790665834	 0.0083591098	 0.089486
C	 1.240986249	 1.9679982398	 0.0016290819	 0.141442
C	 1.4084491459	 3.3284226998	 0.010730855	 0.015584
O	 2.6772336256	 3.6406128562	-0.0011881834	-0.174501
N	 3.3931917844	 2.308444335	-0.018639182	 0.017989
N	 2.5208979426	 1.4369787998	-0.0153478959	-0.1137
H	-0.911706293	 1.805288174	 0.0224198325	 0.084145
H	 0.6895706924	 4.1345020125	 0.0245100864	 0.189382
135.7976	200.893	288.1103	322.5607	496.5682	615.4279	699.5279	768.5859	900.2377	949.7267	1011.8813	1029.3637	1174.7435	1296.9133	1331.4532	1431.8219	1558.0164	1561.1669	1812.4611	2891.1973	3262.1153
O=CC1=CON=N1	O=Cc1conn1	
InChI=1S/C3H2N2O2/c6-1-3-2-7-5-4-3/h1-2H	InChI=1S/C3H2N2O2/c6-1-3-2-7-5-4-3/h1-2H
