14
gdb 1772	4.84862	1.95478	1.75602	5.4701	58.74	-0.2386	0.0318	0.2705	745.4497	0.114517	-320.740782	-320.733558	-320.732614	-320.771532	26.919	
N	-0.1339763957	 1.4506888261	 0.0251149508	-0.51341
C	-0.0425447009	 0.0174268192	-0.0068929923	-0.034657
C	-0.4355040986	-0.7349394378	 1.2297856657	-0.321039
C	-1.3751508488	-0.7405545105	 0.0195627794	 0.161819
N	-2.5856648071	 0.0314681808	-0.0124260584	-0.570218
C	-1.425213169	-1.9681593492	-0.7442021555	 0.281682
N	-1.4465000217	-2.9612788914	-1.337161776	-0.348491
H	 0.5743459089	 1.8452859839	 0.6347155789	 0.24447
H	 0.0002848988	 1.8449325153	-0.8999903377	 0.247104
H	 0.732108449	-0.4400970908	-0.6204124831	 0.109243
H	 0.1072917605	-1.6395862365	 1.4773891275	 0.136819
H	-0.7844434745	-0.1500336402	 2.0739809205	 0.12402
H	-3.2276903415	-0.2644972935	 0.7149697938	 0.23689
H	-2.3403261395	 1.0052523148	 0.1483083863	 0.245768
146.9096	178.1913	223.719	276.981	333.8683	365.8672	435.0436	498.2689	575.7313	588.4037	691.3365	782.0949	839.9355	873.2662	903.0421	922.7277	1003.2432	1059.4938	1103.9453	1165.2401	1218.2503	1270.8763	1309.1591	1321.4602	1419.6554	1472.3837	1645.8038	1656.4821	2350.1599	3111.1882	3138.6206	3235.0796	3484.9335	3507.213	3572.9057	3585.7049
NC1CC1(N)C#N	N[C@H]1C[C@]1(N)C#N	
InChI=1S/C4H7N3/c5-2-4(7)1-3(4)6/h3H,1,6-7H2	InChI=1S/C4H7N3/c5-2-4(7)1-3(4)6/h3H,1,6-7H2/t3-,4-/m0/s1
