15
gdb 259	8.00355	1.98325	1.71486	2.7328	54.59	-0.2267	-0.0252	0.2016	722.1956	0.129063	-287.681216	-287.673848	-287.672904	-287.712476	25.118	
C	-0.1280303297	 1.4935127309	 0.1152492992	-0.322362
N	 0.0221423766	 0.0467336835	 0.0396647672	-0.060443
C	 0.7633586657	-0.4773332693	 1.1763648554	-0.313047
C	-1.2522907835	-0.6189283571	-0.1558113118	-0.224138
C	-1.786394207	-0.3959123562	-1.5625873299	 0.151668
O	-2.9525929871	-0.3787895315	-1.855719202	-0.237964
H	 0.8580786684	 1.9650509232	 0.1616684302	 0.1238
H	-0.6384926103	 1.8680694696	-0.7778739511	 0.126932
H	-0.7089656876	 1.821622771	 0.9980871307	 0.099636
H	 0.2560659826	-0.3102692732	 2.1452508023	 0.097029
H	 0.9185959307	-1.5538217732	 1.0554047667	 0.120111
H	 1.7453757174	 0.0035939318	 1.2258585639	 0.121868
H	-1.0987628855	-1.7035341502	-0.0602599376	 0.126609
H	-2.0349813364	-0.3396421103	 0.5730453747	 0.104557
H	-0.9814528343	-0.2748123189	-2.3233159179	 0.085743
77.2267	115.9529	212.5976	250.1917	262.4543	360.5058	382.3003	443.0189	521.9369	755.0541	877.2688	1044.6036	1064.6067	1068.5701	1086.0021	1123.3757	1183.2834	1203.8736	1288.1648	1311.3816	1355.1717	1401.6244	1445.8954	1454.1679	1478.7642	1481.9518	1497.175	1499.8627	1513.5098	1840.3541	2876.8749	2928.6779	2934.5194	2947.7876	3028.8179	3060.1774	3062.5429	3104.1524	3107.6818
CN(C)CC=O	CN(C)CC=O	
InChI=1S/C4H9NO/c1-5(2)3-4-6/h4H,3H2,1-2H3	InChI=1S/C4H9NO/c1-5(2)3-4-6/h4H,3H2,1-2H3
