14
gdb 1310	3.59559	2.64855	2.23228	1.4261	54.49	-0.2678	0.0185	0.2864	663.043	0.112382	-361.709679	-361.702484	-361.70154	-361.740635	25.984	
C	-0.1138976166	 1.577817855	 0.078011645	-0.444991
C	-0.016683948	 0.0611746641	-0.0023247287	 0.264556
O	-1.2805130356	-0.5637197347	 0.0847711671	-0.466551
C	 0.8296497864	-0.5354217042	-1.1500849647	-0.104859
O	 1.7999371998	-1.0489768316	-0.1770264131	-0.255235
C	 1.0517172974	-0.5828605761	 0.8775649672	 0.395975
N	 1.1927281828	-0.6912588198	 2.1179528749	-0.557738
H	 0.8646639733	 2.0494206784	-0.0535398407	 0.126122
H	-0.795199595	 1.9477762014	-0.6937532769	 0.129962
H	-0.5008797643	 1.8746283339	 1.0578023961	 0.134008
H	-1.5488381682	-0.5397166839	 1.0109070072	 0.295004
H	 0.3403165877	-1.3504099265	-1.6856312376	 0.132849
H	 1.3017821352	 0.1698202282	-1.8369737507	 0.119695
H	 2.0192568451	-1.237841854	 2.3655193648	 0.231204
115.3126	161.8832	219.3341	243.685	307.5953	356.8443	398.1156	532.463	679.9389	701.3346	763.864	865.3231	896.2514	938.3421	960.6303	981.6135	1020.7363	1116.3831	1152.1619	1211.8056	1231.2012	1248.5709	1357.3263	1384.3757	1407.2723	1486.7147	1488.7825	1507.0711	1828.0935	3038.7176	3074.5814	3113.434	3120.0245	3144.0919	3476.6116	3799.3221
CC1(O)COC1=N	C[C@@]1(O)CO[C]1[NH]	
InChI=1S/C4H7NO2/c1-4(6)2-7-3(4)5/h5-6H,2H2,1H3	InChI=1S/C4H7NO2/c1-4(6)2-7-3(4)5/h5-6H,2H2,1H3/t4-/m1/s1
