12
gdb 345	8.71587	2.21187	1.80306	2.733	53.26	-0.264	-0.0552	0.2087	663.4092	0.09367	-269.216969	-269.210012	-269.209068	-269.247773	23.625	
C	-0.050241977	 1.5314743041	 0.0753912732	-0.385079
C	 0.0334712482	 0.0131481019	-0.0532572506	-0.281582
C	 0.7538784584	-0.4439865921	-1.3101015175	 0.23917
O	 1.2161101669	 0.3193358102	-2.1296586061	-0.284696
C	 0.8579012272	-1.8872910112	-1.4745402404	 0.247434
C	 0.9346874486	-3.0826235892	-1.5942958285	-0.398293
H	 0.9473329573	 1.9771680976	 0.0987902296	 0.134784
H	-0.5811175806	 1.966887322	-0.7748562925	 0.134817
H	-0.5763763192	 1.809115678	 0.9926603533	 0.112871
H	 0.549533235	-0.4396704376	 0.8043712502	 0.133274
H	-0.9627585247	-0.4498832958	-0.0587936181	 0.133288
H	 1.0122300399	-4.1356918381	-1.7172135226	 0.214012
66.8555	148.224	185.8664	251.7596	271.3744	484.0435	564.5381	591.9567	645.2835	703.9963	769.4335	807.0787	994.952	1054.2419	1088.8182	1139.284	1271.3316	1367.7259	1413.9813	1447.2473	1491.8311	1497.9099	1772.2755	2210.8251	3022.9968	3049.9331	3053.1671	3125.5633	3129.0072	3494.6618
CCC(=O)C#C	CCC(=O)C#C	
InChI=1S/C5H6O/c1-3-5(6)4-2/h1H,4H2,2H3	InChI=1S/C5H6O/c1-3-5(6)4-2/h1H,4H2,2H3
