15
gdb 2310	7.19149	1.47483	1.33343	4.8145	62.11	-0.2502	0.0265	0.2767	895.0573	0.124571	-304.677606	-304.67017	-304.669226	-304.709518	26.16	
C	 0.233533309	 0.9599708738	-1.7609437262	-0.416809
C	 0.3070558601	-0.3066776283	-0.9359111468	 0.029766
C	 1.2565234973	-1.4048997111	-1.2757074389	-0.247771
N	 1.4282721645	-0.6345464729	-0.044472466	-0.082584
C	 2.56425665	 0.274532837	 0.0263274882	-0.288052
C	 3.7397105829	-0.4213228968	 0.5646452342	 0.284578
N	 4.6776554009	-0.9576847088	 0.9722709592	-0.300461
H	 1.1678404625	 1.1819797434	-2.2824397782	 0.123039
H	-0.545658033	 0.8533435398	-2.5225206412	 0.133346
H	-0.0294482361	 1.8245998991	-1.1416214782	 0.129053
H	-0.6461894214	-0.5919712297	-0.4939095742	 0.103224
H	 0.9874365882	-2.4488716072	-1.1448209935	 0.128148
H	 1.9517150762	-1.2154490068	-2.0933082092	 0.114944
H	 2.8588470627	 0.7213785467	-0.9365345604	 0.133156
H	 2.3146876762	 1.101002902	 0.7019775314	 0.156425
53.6884	130.4923	181.4883	239.0572	314.5577	386.1008	424.4251	467.4555	544.2108	751.4818	825.8721	899.0338	925.4658	962.0568	1000.0799	1043.4264	1071.3683	1119.9632	1147.319	1166.0064	1189.3561	1270.4558	1333.556	1370.997	1404.3064	1420.9335	1471.72	1492.4654	1499.0569	1513.4047	2368.4828	2979.0919	3037.9826	3061.3209	3092.6565	3098.4004	3108.9092	3128.3144	3185.5714
CC1CN1CC#N	C[C@H]1CN1CC#N	
InChI=1S/C5H8N2/c1-5-4-7(5)3-2-6/h5H,3-4H2,1H3	InChI=1S/C5H8N2/c1-5-4-7(5)3-2-6/h5H,3-4H2,1H3/t5-,7?/m0/s1
