11
gdb 576	12.33614	2.01791	1.85819	4.8091	46.97	-0.2893	0.0256	0.3149	629.6714	0.084551	-285.2779	-285.272042	-285.271098	-285.307635	19.788	
N	 0.0146783029	-1.074386377	 0.4118046358	-0.296157
C	-0.000156208	 0.0536776179	 0.1639549995	 0.263062
C	-0.0072720496	 1.4788628344	-0.1675917184	-0.363131
C	 1.3907919772	 2.0745929069	-0.2043067346	 0.102745
C	 1.6100250351	 3.4900551193	 0.1114914342	-0.179978
O	 1.9445994126	 2.4599214957	 1.0454301791	-0.216403
H	-0.4894690545	 1.6059240993	-1.1444299256	 0.159225
H	-0.6110027694	 2.0152214304	 0.5717118917	 0.162276
H	 2.0871196707	 1.5721027101	-0.8753651752	 0.118367
H	 2.4532391951	 4.0166337602	-0.3312376796	 0.128614
H	 0.7632870978	 4.1159402627	 0.3904706831	 0.121381
74.8481	157.5341	358.6152	378.8881	388.3181	550.1007	795.5589	860.4533	918.3277	945.7936	982.6016	1096.0241	1110.6768	1161.8341	1168.3914	1246.6189	1293.8319	1317.499	1438.7054	1449.1781	1530.4747	2367.0951	3043.5895	3088.198	3091.4771	3121.1048	3178.0422
N#CCC1CO1	N#CC[C@H]1CO1	
InChI=1S/C4H5NO/c5-2-1-4-3-6-4/h4H,1,3H2	InChI=1S/C4H5NO/c5-2-1-4-3-6-4/h4H,1,3H2/t4-/m0/s1
