17
gdb 3083	3.37741	2.26971	1.87259	0.8589	70.45	-0.2372	0.0506	0.2879	784.1515	0.146441	-272.545389	-272.537241	-272.536297	-272.57725	29.875	
C	-0.1190550406	 1.5631808285	 0.0728685238	-0.408859
C	 0.0239897541	 0.0624077125	-0.039779372	-0.019334
C	 0.6896992785	-0.6180518669	-1.2061964359	-0.019339
C	 1.2795804773	 0.1335421083	-2.3777873767	-0.408872
C	 1.3744830106	-0.6298774965	 0.1631932191	-0.221109
C	 2.5635407956	 0.1344378931	 0.3959493082	 0.349627
C	 3.5676642621	 0.7666828722	 0.6002140505	-0.485857
H	 0.7781489151	 2.0877239006	-0.26180108	 0.132256
H	-0.9664231941	 1.9201348438	-0.5227847718	 0.115302
H	-0.2963071448	 1.8544810843	 1.1135340871	 0.121201
H	-0.8089355131	-0.4872495782	 0.3916442317	 0.087931
H	 0.2583717237	-1.5781982857	-1.4783870703	 0.087932
H	 1.8068960374	 1.0364001841	-2.0632830514	 0.132267
H	 2.0005584277	-0.4940286256	-2.9122058311	 0.121193
H	 0.4980464419	 0.423707049	-3.088604542	 0.115306
H	 1.3456543102	-1.5749564425	 0.6980840058	 0.107605
H	 4.4546946183	 1.320255619	 0.783473195	 0.19275
127.0392	147.0516	154.9312	157.8493	238.7332	323.5879	365.2593	474.5817	568.8361	571.226	612.6331	645.5844	737.0994	772.7204	831.2302	934.6056	955.1841	1014.0772	1038.4671	1079.0316	1127.0182	1141.0297	1152.0264	1191.1554	1256.9466	1363.2262	1377.0531	1420.506	1422.842	1433.3617	1484.3831	1492.0094	1499.0868	1510.2221	2228.826	3034.7365	3038.0001	3092.3218	3093.8066	3117.3461	3126.5753	3134.1078	3138.4452	3150.4294	3504.9711
CC1C(C)C1C#C	C[C@H]1[C@@H](C)[C@H]1C#C	
InChI=1S/C7H10/c1-4-7-5(2)6(7)3/h1,5-7H,2-3H3	InChI=1S/C7H10/c1-4-7-5(2)6(7)3/h1,5-7H,2-3H3/t5-,6+,7-
