21
gdb 2549	2.29738	2.13674	1.22052	1.3442	71.01	-0.2612	0.0795	0.3407	1050.7496	0.193227	-312.12476	-312.115218	-312.114274	-312.159031	33.705	
C	-0.1866262238	 1.4552446425	-0.0998877443	-0.390608
C	-0.0757222539	-0.0672154905	 0.0274720718	-0.178278
C	 0.8074015664	-0.5488552003	 1.1954597539	 0.065073
C	 0.1286664937	-0.3457045179	 2.5638316716	-0.185278
C	 1.0635327548	-0.4522767502	 3.7746964294	-0.387415
C	 1.2020442032	-2.0136222397	 0.989234456	-0.0883
O	 1.9961709766	-2.1058346353	-0.1873293825	-0.423011
H	 0.8001483685	 1.9088614678	-0.2458023038	 0.115219
H	-0.8072347059	 1.731298519	-0.958396231	 0.109794
H	-0.6345318947	 1.9172354064	 0.7861734825	 0.112984
H	-1.078802763	-0.5037822774	 0.1373837068	 0.082527
H	 0.3400497877	-0.4738622139	-0.8992944683	 0.113809
H	 1.7408434274	 0.0328829551	 1.1785698992	 0.074141
H	-0.3444710783	 0.6422062927	 2.579049331	 0.097903
H	-0.6923174213	-1.069673354	 2.6654821168	 0.09016
H	 1.5160873491	-1.4445841207	 3.8654557427	 0.116203
H	 1.8787967307	 0.2765062368	 3.7060793877	 0.11635
H	 0.5210712925	-0.2561181669	 4.7050925622	 0.11083
H	 1.7610883792	-2.3855883956	 1.8603337798	 0.08271
H	 0.2882816278	-2.6258815326	 0.9000577241	 0.079978
H	 2.1875960133	-3.0338587455	-0.3487880056	 0.285209
61.1499	91.605	115.032	203.1772	208.018	229.1178	264.2761	270.0272	295.2489	436.4579	451.3155	494.5171	751.5666	775.8689	832.3533	909.7483	966.4717	981.5366	1025.3458	1043.0687	1057.5654	1074.4245	1131.2152	1164.8572	1182.2846	1246.1056	1264.1789	1280.2415	1316.5023	1335.1737	1348.1258	1383.5	1396.2047	1413.1618	1415.1424	1457.0966	1484.4692	1492.656	1500.1251	1503.3419	1506.2854	1510.4069	1519.5512	2955.9754	2995.4262	3005.9811	3007.7891	3020.264	3031.4948	3034.272	3060.1804	3077.0663	3097.387	3098.8282	3102.8527	3105.7373	3834.8793
CCC(CC)CO	CCC(CC)CO	
InChI=1S/C6H14O/c1-3-6(4-2)5-7/h6-7H,3-5H2,1-2H3	InChI=1S/C6H14O/c1-3-6(4-2)5-7/h6-7H,3-5H2,1-2H3
