16
gdb 4058	5.29318	1.31975	1.18647	1.2283	70.27	-0.2362	0.0062	0.2423	1020.3552	0.129957	-379.840098	-379.832439	-379.831494	-379.871842	29.032	
C	 0.0299460047	 1.5206083401	 0.032373872	-0.482267
C	-0.0469638785	 0.0257247124	 0.0775314831	 0.34095
C	-1.3430900231	-0.8222219755	-0.0021512493	-0.391295
C	-0.675121838	-1.7759083242	 0.9874555123	 0.442269
N	-1.0309123727	-2.7810516891	 1.6717107126	-0.261265
O	-2.3374703904	-3.1828684558	 1.3317847626	-0.392642
C	 0.579222028	-0.9724425944	 1.0385572494	-0.184588
N	 1.0985798051	-0.7711694622	-0.3272413412	-0.351668
H	 1.0422500597	 1.8555556025	 0.271495285	 0.13741
H	-0.2198140045	 1.891678431	-0.9686488499	 0.126059
H	-0.6700572755	 1.9730579197	 0.742085942	 0.122909
H	-2.2241397689	-0.3479672267	 0.4416446231	 0.132205
H	-1.6111396627	-1.2074254955	-0.9911847388	 0.116598
H	-2.4798744968	-3.9279846656	 1.9252057796	 0.307185
H	 1.2554354202	-0.844114998	 1.8743713224	 0.105115
H	 0.8592461933	-1.5412816687	-0.949736105	 0.233023
98.2779	181.4338	207.1284	264.2426	339.6555	349.7532	405.5651	456.7167	493.5351	584.8273	635.7742	717.092	786.5614	849.3914	933.1052	959.0899	970.9144	978.588	1041.432	1072.8721	1114.4666	1137.8812	1156.866	1184.8062	1224.1562	1243.7768	1292.9622	1397.7101	1409.0666	1441.7964	1472.5076	1484.254	1493.7803	1784.5397	3032.0527	3048.7764	3093.0318	3098.0387	3125.0921	3200.333	3464.117	3818.453
CC12CC(=NO)C1N2	C[C@]12CC(=NO)[C@H]1N2	
InChI=1S/C5H8N2O/c1-5-2-3(7-8)4(5)6-5/h4,6,8H,2H2,1H3	InChI=1S/C5H8N2O/c1-5-2-3(7-8)4(5)6-5/h4,6,8H,2H2,1H3/t4-,5+/m1/s1
