14
gdb 2084	4.93782	2.63898	1.83114	5.2582	53.93	-0.2506	0.0572	0.3078	673.8036	0.116324	-361.764881	-361.758682	-361.757738	-361.795214	22.564	
O	 0.0128803271	-0.0518489363	 0.0755857444	-0.393593
C	-0.0189639919	 1.1514665354	 0.0057168651	 0.464423
N	-1.1848959431	 1.8719865194	-0.007848937	-0.360842
C	-1.3403976523	 3.3179932824	 0.0079387061	-0.146938
C	-0.0167571004	 3.9532359782	 0.4217379151	-0.222942
C	 1.1007117863	 3.262124727	-0.3433962916	-0.063012
O	 1.1407657333	 1.861901578	-0.0465258241	-0.240064
H	-2.004468053	 1.2878459099	 0.0182979422	 0.258298
H	-1.6369806536	 3.6878571877	-0.984912375	 0.110808
H	-2.1401881613	 3.5899419041	 0.7056758539	 0.116772
H	-0.0235290736	 5.0252656645	 0.2047840827	 0.113977
H	 0.1496813414	 3.8243302661	 1.4964505059	 0.125612
H	 0.9725721564	 3.4004115443	-1.4261986941	 0.112497
H	 2.0859420648	 3.6445286595	-0.0673660936	 0.125004
95.6863	134.2271	308.0644	443.9923	476.2146	517.5134	549.7318	684.2771	761.3514	813.9266	901.4863	911.4345	962.0045	1005.7879	1107.5684	1126.4595	1151.5756	1226.6747	1246.7266	1296.9256	1305.1696	1376.8251	1399.7806	1434.2317	1472.689	1485.4588	1514.8097	1531.5758	1845.5782	2989.5199	3012.681	3047.8683	3060.2439	3102.9198	3106.3177	3652.9613
O=C1NCCCO1	O=C1NCCCO1	
InChI=1S/C4H7NO2/c6-4-5-2-1-3-7-4/h1-3H2,(H,5,6)	InChI=1S/C4H7NO2/c6-4-5-2-1-3-7-4/h1-3H2,(H,5,6)
