17
gdb 2128	3.38695	2.88321	1.62007	1.9433	67.72	-0.2197	0.0289	0.2486	788.433	0.147601	-309.734862	-309.727156	-309.726212	-309.766587	27.288	
C	 0.0866828719	 1.5116829459	 0.0606058811	-0.499237
C	-0.0033085118	 0.0222488686	-0.0221024073	 0.195965
C	-1.0742587036	-0.7748655533	 0.0033591943	 0.195964
C	-2.5237718746	-0.4312852125	 0.1225986439	-0.499237
C	-0.6246917599	-2.2093111322	-0.1127004781	-0.140623
O	 0.7932649669	-2.1722979509	-0.2077469034	-0.263581
C	 1.2379198348	-0.8229615464	-0.1569597932	-0.140623
H	 0.692771988	 1.8243199522	 0.9206669833	 0.128574
H	 0.5730060949	 1.9288125496	-0.8306209106	 0.128584
H	-0.8955694771	 1.9806292393	 0.1557488457	 0.125964
H	-3.0896454172	-0.796710025	-0.7440317061	 0.128591
H	-2.9707431252	-0.9029462161	 1.0072109319	 0.128567
H	-2.6884031156	 0.6461293087	 0.1991330863	 0.125965
H	-0.9280778308	-2.8107690083	 0.7610906491	 0.096262
H	-1.0488139277	-2.7061653774	-1.0018077863	 0.096302
H	 1.8080278993	-0.5797928521	-1.0697031805	 0.096301
H	 1.9275255975	-0.6853428002	 0.6932233099	 0.096263
108.5516	139.9727	165.595	192.3102	266.6889	267.8727	361.0126	501.3986	602.0622	632.7231	827.0051	913.626	946.8234	951.6782	987.7604	1018.9484	1084.5836	1097.2342	1099.1338	1152.0878	1175.8598	1209.0899	1224.1864	1280.0536	1373.4469	1393.8066	1413.6756	1423.2669	1478.159	1481.495	1487.7826	1492.979	1517.0726	1530.6736	1761.6499	2950.0255	2959.2677	2965.3044	2968.0365	3016.5943	3018.7933	3060.6048	3060.8918	3112.4276	3117.0046
CC1=C(C)COC1	CC1=C(C)COC1	
InChI=1S/C6H10O/c1-5-3-7-4-6(5)2/h3-4H2,1-2H3	InChI=1S/C6H10O/c1-5-3-7-4-6(5)2/h3-4H2,1-2H3
