14
gdb 2061	5.08178	2.56864	1.78397	5.2635	61.46	-0.2163	-0.0262	0.19	680.7687	0.116178	-324.614891	-324.608887	-324.607943	-324.644572	22.885	
O	-0.0238300697	-0.0918859731	 0.0917697959	-0.356227
C	-0.0092393825	 1.1253112272	 0.0412310291	 0.368047
C	-1.3142177304	 1.9347951252	-0.0177694305	-0.301771
C	-1.1664944201	 3.3167365161	 0.6187088702	-0.179634
N	-0.0096289473	 3.9995283263	 0.0464787498	-0.279606
C	 1.1434970881	 3.2832996544	-0.0883835862	 0.025435
C	 1.2028249241	 1.9276975176	-0.0520382917	-0.222119
H	-1.5821795198	 2.0420256503	-1.077572804	 0.127118
H	-2.1087756503	 1.3637364404	 0.4671039006	 0.124606
H	-2.0579584165	 3.9273068985	 0.4500640503	 0.114815
H	-1.0352118291	 3.2044180955	 1.7076197986	 0.111847
H	 0.0879351921	 4.9793893311	 0.2579671529	 0.250605
H	 2.0368669821	 3.8807604043	-0.2483072118	 0.119641
H	 2.1505647893	 1.4168193062	-0.1622513133	 0.097242
137.6308	233.6114	368.0428	439.7056	453.2271	509.8722	537.9986	638.1827	765.2885	769.7375	819.1659	907.3323	978.8887	1007.983	1021.5043	1068.1966	1106.9687	1189.3247	1229.7218	1247.5496	1286.5477	1344.3336	1377.504	1427.2199	1456.3328	1495.6053	1530.0778	1662.4046	1763.5742	2970.7276	3029.0728	3082.7754	3115.5403	3171.4321	3219.4367	3633.8885
O=C1CCNC=C1	O=C1CCNC=C1	
InChI=1S/C5H7NO/c7-5-1-3-6-4-2-5/h1,3,6H,2,4H2	InChI=1S/C5H7NO/c7-5-1-3-6-4-2-5/h1,3,6H,2,4H2
