14
gdb 1234	7.71597	1.10036	1.00102	5.3498	71.68	-0.2826	-0.0356	0.247	1125.1643	0.112534	-287.440932	-287.433077	-287.432133	-287.473067	27.251	
C	-0.0090664213	 1.5536599483	 0.02000781	-0.380535
C	-0.0204164376	 0.0111243354	-0.0303596018	-0.154387
C	-1.4562377855	-0.5524515985	 0.0228841803	-0.380541
C	 0.6845790833	-0.4749114618	-1.2107198686	 0.173397
C	 1.2602791106	-0.8714631277	-2.197257054	-0.044901
C	 1.9105589411	-1.3181240564	-3.3112015636	 0.208333
N	 2.4634838543	-1.6988398712	-4.2596455131	-0.339561
H	 1.0118663593	 1.94261663	 0.0056265451	 0.13535
H	-0.5475448378	 1.9716114194	-0.8353290118	 0.135216
H	-0.4985974492	 1.8952896002	 0.9365843303	 0.125365
H	 0.5252215384	-0.3626082417	 0.84739129	 0.126347
H	-2.0405437526	-0.2012931194	-0.8324038945	 0.135214
H	-1.4532937335	-1.6449901386	 0.0106288192	 0.135346
H	-1.9495140895	-0.216172158	 0.9394294826	 0.125358
90.3273	107.9414	225.6827	231.3141	236.8847	279.6112	342.79	496.0723	521.4668	578.8924	594.1992	657.3413	870.796	934.4712	967.4627	1064.1618	1114.3182	1149.433	1211.5943	1311.8847	1346.5275	1397.7544	1419.8229	1486.0794	1488.35	1499.0361	1510.0701	2261.7435	2398.4842	3012.4312	3044.0345	3046.955	3118.5878	3123.4328	3127.7333	3129.2305
CC(C)C#CC#N	CC(C)C#CC#N	
InChI=1S/C6H7N/c1-6(2)4-3-5-7/h6H,1-2H3	InChI=1S/C6H7N/c1-6(2)4-3-5-7/h6H,1-2H3
