13
gdb 1214	8.73264	1.2013	1.06984	4.8662	54.79	-0.2672	0.0122	0.2794	1001.9371	0.10097	-340.691219	-340.683171	-340.682227	-340.725385	26.468	
N	-0.0539213002	 1.3454665943	 0.0093168238	-0.527794
C	 0.0666693759	-0.0107932844	 0.0003187891	 0.418643
O	 1.1416922302	-0.5780577245	-0.0143878054	-0.349977
C	-1.2622950771	-0.768367062	 0.0101769092	-0.316792
C	-1.0192846574	-2.2852063034	-0.0011133592	-0.329046
C	-2.2700256379	-3.0388964974	 0.0079488147	 0.251654
N	-3.2685928798	-3.6204310378	 0.0153003266	-0.305389
H	 0.7853568242	 1.9013233912	 0.0036577371	 0.267244
H	-0.9442562209	 1.8108813193	 0.0216262866	 0.263575
H	-1.8407726222	-0.4812295077	 0.8954323974	 0.143569
H	-1.8595285558	-0.4711705601	-0.8591597663	 0.143572
H	-0.4335557458	-2.5621369176	-0.8823486714	 0.17037
H	-0.414870243	-2.57214229	 0.8641578078	 0.170371
17.1365	73.5696	130.4565	134.3302	250.7607	391.4797	403.8458	502.9284	541.2482	610.7827	638.0579	790.8874	851.5292	950.4773	1035.4945	1053.498	1096.4997	1177.1763	1248.1252	1306.8042	1338.2045	1406.5976	1457.456	1472.1703	1620.5317	1798.843	2363.9781	3044.9613	3073.0735	3081.2044	3112.8436	3605.0633	3740.5975
NC(=O)CCC#N	NC(=O)CCC#N	
InChI=1S/C4H6N2O/c5-3-1-2-4(6)7/h1-2H2,(H2,6,7)	InChI=1S/C4H6N2O/c5-3-1-2-4(6)7/h1-2H2,(H2,6,7)
