10
gdb 4232	3.71986	2.52218	2.04337	3.9007	37.93	-0.2637	0.0017	0.2653	624.0513	0.063437	-487.002792	-486.996143	-486.995199	-487.034002	23.621	
N	-0.0762695383	 1.3533095494	 0.0047760649	-0.540828
C	 0.084691059	-0.0103222228	 0.0466895491	 0.208455
N	 1.1408669268	-0.7060426804	 0.1649645962	-0.490027
C	-1.2549425185	-0.7566485911	 0.0481635126	 0.282359
F	-1.1315513679	-2.0058026682	-0.3654386212	-0.039291
F	-1.7886788464	-0.7653208048	 1.2759053473	-0.067244
F	-2.140092842	-0.13139963	-0.7617523945	-0.096396
H	 0.7480873006	 1.9141841647	-0.1415356276	 0.259121
H	-0.9236340974	 1.7115793954	-0.4064072785	 0.269532
H	 1.9771431841	-0.1193629522	 0.1881462218	 0.21432
42.2067	250.2566	272.4043	389.1114	419.0174	437.9435	450.4313	516.8644	589.4265	619.5978	733.1282	791.9656	876.0188	1096.7048	1112.2379	1171.978	1216.912	1268.5348	1446.6156	1635.9678	1757.0592	3459.801	3588.1301	3703.4709
NC(=N)C(F)(F)F	NC(=N)C(F)(F)F	
InChI=1S/C2H3F3N2/c3-2(4,5)1(6)7/h(H3,6,7)	InChI=1S/C2H3F3N2/c3-2(4,5)1(6)7/h(H3,6,7)
