18
gdb 4908	4.97259	1.23807	1.06124	1.5995	75.7	-0.18	0.0574	0.2374	1145.823	0.155169	-344.023244	-344.014712	-344.013767	-344.056526	31.422	
C	-0.0023244958	 1.5956934038	-0.1014245448	-0.359555
C	-0.0213650063	 0.0701545769	 0.0946693737	-0.296185
C	-1.4019444788	-0.5195876342	 0.0549407365	 0.303001
C	-2.0819395484	-1.0792738407	 1.1106122721	-0.197453
N	-3.3179160338	-1.4885756099	 0.657551101	-0.266134
C	-3.4387503152	-1.2035938248	-0.6784480334	 0.293649
N	-4.652388448	-1.497154742	-1.3381325185	-0.608681
C	-2.266643997	-0.6051526613	-1.0836010168	-0.313705
H	 1.0209030087	 1.9854365419	-0.0750246908	 0.102402
H	-0.444258676	 1.8739977252	-1.0635365567	 0.114489
H	-0.5800043539	 2.0953576277	 0.6826175799	 0.11489
H	 0.6071328508	-0.3937394283	-0.6773544466	 0.096659
H	 0.44739307	-0.1769482821	 1.0546829483	 0.09265
H	-1.786850871	-1.2271068499	 2.13729892	 0.107314
H	-4.0686308713	-1.848601793	 1.2203504592	 0.255097
H	-4.732410281	-0.9510956861	-2.1872935049	 0.245055
H	-4.7193222021	-2.4769674258	-1.6008026769	 0.241288
H	-2.0405638908	-0.2844762574	-2.0902380613	 0.075219
53.7228	118.4464	135.1445	198.9107	257.3018	299.5681	386.5091	426.8866	479.726	580.4769	644.3211	677.4009	698.4681	733.3061	782.8942	789.3285	833.9725	947.3606	996.6058	1012.7224	1063.0908	1087.582	1122.2031	1157.2732	1190.5248	1257.8488	1300.0502	1326.3077	1362.7663	1405.133	1426.2594	1477.4636	1484.6588	1495.2689	1506.0676	1556.3881	1629.3288	1657.8466	3012.4609	3031.4188	3051.6918	3100.4102	3107.2904	3232.7732	3257.7014	3484.046	3591.759	3682.484
CCC1=CNC(N)=C1	CCc1c[nH]c(N)c1	
InChI=1S/C6H10N2/c1-2-5-3-6(7)8-4-5/h3-4,8H,2,7H2,1H3	InChI=1S/C6H10N2/c1-2-5-3-6(7)8-4-5/h3-4,8H,2,7H2,1H3
