12
gdb 676	6.42281	4.72462	3.44212	1.059	44.8	-0.2313	0.0896	0.3209	425.5561	0.097684	-306.33485	-306.330075	-306.329131	-306.362777	17.914	
C	 0.0221687398	 1.4617426704	 0.3057251737	-0.359924
C	 1.3092955671	 0.7616507449	-0.0907215066	 0.07714
O	 2.1110087102	 0.2172842141	 0.928765678	-0.253398
C	 1.2553389876	-0.574726732	 1.7336948189	 0.018324
O	 0.145030699	-0.9627088751	 0.9437272305	-0.253398
C	 0.030254088	-0.0060384445	-0.0809881593	 0.07714
H	-0.1396893045	 1.7445231467	 1.339819367	 0.12827
H	-0.3963649542	 2.1498395687	-0.4215066518	 0.120416
H	 1.8814539743	 1.0402964177	-0.9659032839	 0.11383
H	 1.7935807127	-1.4672427635	 2.0684312387	 0.122555
H	 0.9143537754	 0.0044639664	 2.6073683891	 0.095216
H	-0.4944927854	-0.3857637638	-0.9478221643	 0.11383
222.2616	315.0717	461.7991	731.1621	735.6482	754.3035	791.9378	918.7498	946.5872	976.5872	987.9169	1051.0188	1064.9964	1089.5092	1132.963	1156.5919	1170.3668	1201.8319	1219.7066	1314.4561	1377.2871	1436.5055	1464.3201	1553.4456	2964.8815	3073.4032	3135.469	3197.7986	3205.5262	3226.0437
C1C2OCOC12	C1[C@H]2OCO[C@@H]12	
InChI=1S/C4H6O2/c1-3-4(1)6-2-5-3/h3-4H,1-2H2	InChI=1S/C4H6O2/c1-3-4(1)6-2-5-3/h3-4H,1-2H2/t3-,4+
