14
gdb 1994	6.58416	1.72437	1.46603	5.7371	53.84	-0.2533	0.0213	0.2746	801.0763	0.114635	-361.724921	-361.71833	-361.717386	-361.755825	23.818	
O	 0.0556002228	 0.1577963906	-0.8806423711	-0.370745
C	 0.0096328682	 1.26682301	-0.122339655	 0.402186
O	 0.9646569695	 1.6570026725	 0.4924036204	-0.323662
C	-1.3357615301	 2.0045025368	-0.1543622241	-0.345432
C	-2.5393232543	 1.1033941702	 0.054926092	-0.001572
C	-3.6848895331	 1.0935921318	-0.8878422066	-0.240097
N	-2.684568259	 0.0137672255	-0.9377940947	-0.328556
H	-0.8417474211	-0.0222936431	-1.2376585451	 0.313359
H	-3.0407619595	-0.8307812754	-0.5010597189	 0.250409
H	-1.3030984628	 2.7927592688	 0.5993923846	 0.137734
H	-1.411737177	 2.4871082745	-1.1365640949	 0.131367
H	-2.7505511305	 0.8448992833	 1.0895554066	 0.112259
H	-4.6724756485	 0.8524274122	-0.5062995827	 0.128561
H	-3.6788483646	 1.7626502722	-1.7433976705	 0.134189
95.6861	113.3204	234.4311	347.7412	390.2531	467.7497	587.4485	701.4276	793.4097	827.6448	872.2087	883.6625	919.8276	952.6298	985.7031	1018.4273	1111.3941	1133.2147	1173.1549	1239.6372	1256.6293	1281.1647	1294.9144	1306.9826	1427.6524	1443.1996	1465.8969	1511.9936	1867.4153	3042.6674	3119.0099	3124.6558	3146.084	3207.4064	3447.8745	3526.5503
[O-]C(=O)CC1C[NH2+]1	OC(=O)C[C@H]1CN1	
InChI=1S/C4H7NO2/c6-4(7)1-3-2-5-3/h3,5H,1-2H2,(H,6,7)	InChI=1S/C4H7NO2/c6-4(7)1-3-2-5-3/h3,5H,1-2H2,(H,6,7)/t3-/m0/s1
