16
gdb 1863	5.28499	2.17852	1.72009	1.4516	61.55	-0.2385	0.0334	0.2719	767.864	0.137068	-325.812267	-325.805047	-325.804103	-325.843756	25.848	
C	-0.2602916962	 1.5256939695	-0.0251302357	-0.396229
C	 0.0788565438	 0.0448610641	 0.0338715215	 0.108349
C	 0.949133312	-0.4777268655	-1.1435601858	-0.197804
N	 2.2090029285	-0.9156949673	-0.5298733167	-0.30586
C	 2.0822413216	-0.7331795252	 0.7212166128	 0.405266
C	 3.102228538	-1.0336826665	 1.765945066	-0.470851
O	 0.9139832299	-0.2145585472	 1.1940524908	-0.264094
H	 0.6483564453	 2.1229800031	-0.1523332199	 0.12649
H	-0.9237362983	 1.7251117565	-0.8732149756	 0.120572
H	-0.7640110894	 1.8504682341	 0.889531687	 0.127687
H	-0.8332481858	-0.5467508649	 0.1643443405	 0.088919
H	 0.4799048589	-1.3141419861	-1.6729881175	 0.11202
H	 1.1432731229	 0.3060006516	-1.8857919408	 0.108726
H	 3.9942701445	-1.4491213725	 1.2986187185	 0.150822
H	 3.3634850566	-0.1231100896	 2.3142668253	 0.142701
H	 2.7010308475	-1.746498294	 2.4932324994	 0.143286
57.9628	145.7314	221.1406	236.0801	303.0211	382.2733	436.0492	609.6081	656.9851	725.554	836.8282	908.0991	934.2221	957.4502	979.538	1061.9073	1065.7224	1085.6104	1124.0591	1142.8795	1231.1631	1255.0368	1330.6962	1351.2057	1386.5233	1409.1245	1418.2731	1476.0154	1477.0492	1485.1806	1495.7587	1505.3463	1743.9175	3028.7867	3037.2685	3044.7793	3050.4959	3066.4035	3107.4188	3109.9528	3118.9401	3165.8466
CC1CN=C(C)O1	C[C@H]1CN=C(C)O1	
InChI=1S/C5H9NO/c1-4-3-6-5(2)7-4/h4H,3H2,1-2H3	InChI=1S/C5H9NO/c1-4-3-6-5(2)7-4/h4H,3H2,1-2H3/t4-/m0/s1
