18
gdb 4777	4.44284	1.38612	1.09802	3.0634	75.34	-0.2057	0.0413	0.247	1115.6372	0.154683	-344.043651	-344.035211	-344.034267	-344.077539	30.389	
C	 0.0051077429	 1.5788736429	 0.0299697064	-0.362407
C	 0.1406088097	 0.0517017192	 0.0308302065	-0.298595
C	 0.7625739821	-0.4733145554	-1.2278028124	 0.35715
N	 0.5659563439	-0.0120302218	-2.4442333267	-0.347415
C	 1.3065162786	-0.8141256729	-3.2901671545	 0.285174
C	 1.3296769505	-0.583020985	-4.7661101859	-0.487863
C	 1.959217977	-1.7753149303	-2.5642473414	-0.197619
N	 1.6055466798	-1.5470430388	-1.2485785302	-0.286354
H	 0.9870167204	 2.0595548333	-0.009580879	 0.119608
H	-0.5585747451	 1.9061248356	-0.8461645659	 0.147889
H	-0.5113206983	 1.9218225162	 0.9312975464	 0.105256
H	 0.7355120111	-0.2777860285	 0.8920322156	 0.094227
H	-0.852972714	-0.3996240734	 0.1595870317	 0.121197
H	 1.7002720164	 0.4203844503	-5.0027856697	 0.129693
H	 1.9720571579	-1.3112813682	-5.2690492539	 0.113043
H	 0.3242668677	-0.6616892395	-5.1941345084	 0.129606
H	 2.6272372216	-2.5722381194	-2.8464393359	 0.119966
H	 1.9161316278	-2.0741524743	-0.4499767729	 0.257444
24.6073	116.2525	148.5367	188.8192	246.3771	305.2929	356.6109	436.0794	514.1034	606.9463	659.4561	699.7489	715.1812	737.9797	798.146	969.4059	992.3034	1008.6825	1036.4095	1065.6097	1092.2653	1099.044	1111.5276	1221.9276	1283.595	1291.9171	1344.7605	1392.7623	1409.0708	1416.3686	1458.9676	1476.1382	1483.0172	1493.0894	1496.837	1507.1761	1565.1111	1612.7233	3010.0273	3032.1545	3043.7971	3047.6137	3085.2983	3112.9547	3114.0607	3136.2623	3269.0758	3663.894
CCC1=NC(C)=CN1	CCc1nc(C)c[nH]1	
InChI=1S/C6H10N2/c1-3-6-7-4-5(2)8-6/h4H,3H2,1-2H3,(H,7,8)	InChI=1S/C6H10N2/c1-3-6-7-4-5(2)8-6/h4H,3H2,1-2H3,(H,7,8)
