19
gdb 1197	6.61698	1.09791	0.99391	0.1818	76.36	-0.2402	0.0614	0.3016	1231.6811	0.169126	-273.77551	-273.766097	-273.765152	-273.810315	32.46	
C	 0.0474843898	 1.509576272	 0.0097630075	-0.497733
C	 0.0365934344	 0.0531599804	 0.0220138569	 0.097185
C	 0.0393734395	-1.1514331085	 0.0324310606	 0.034702
C	 0.0182254377	-2.6105145005	 0.0351435832	-0.34367
C	-1.4050117368	-3.2215960098	 0.0121834212	 0.052191
C	-1.3220871931	-4.7450395566	-0.137705338	-0.390224
C	-2.2068098788	-2.8255737323	 1.2566346787	-0.379054
H	 0.8529585622	 1.8973117655	-0.624104082	 0.145228
H	-0.8961443267	 1.9129241439	-0.3745407028	 0.144869
H	 0.194551835	 1.9176630928	 1.0160820578	 0.144718
H	 0.5792096087	-2.983416508	-0.8321757547	 0.118344
H	 0.5502355377	-2.9864598527	 0.9210758705	 0.118161
H	-1.9169367422	-2.814200257	-0.8693751075	 0.081891
H	-0.8014580721	-5.1952923803	 0.7163200947	 0.111744
H	-2.320934339	-5.1902102859	-0.1871943382	 0.110766
H	-0.7816127223	-5.0313710804	-1.0463857236	 0.109548
H	-3.2287190555	-3.2151079143	 1.2055179883	 0.107765
H	-1.7421512263	-3.2298509562	 2.1645169696	 0.107796
H	-2.2587721024	-1.738532252	 1.3619744076	 0.125774
29.1519	70.8401	94.4162	214.3495	229.0675	249.4002	267.8858	327.1307	365.5418	388.3736	416.24	501.2477	771.8306	817.86	883.7286	931.9719	950.4514	967.9658	1053.9572	1054.0956	1127.1869	1140.9811	1167.8	1191.3641	1256.6891	1309.5484	1366.7694	1369.2449	1398.7341	1415.7962	1418.4049	1469.7143	1479.5766	1480.1572	1488.685	1493.3407	1502.521	1510.0255	2370.2807	3000.787	3017.7602	3022.7217	3024.4045	3028.5953	3038.0643	3083.721	3083.9011	3087.0726	3093.0682	3100.2894	3114.9885
CC#CCC(C)C	CC#CCC(C)C	
InChI=1S/C7H12/c1-4-5-6-7(2)3/h7H,6H2,1-3H3	InChI=1S/C7H12/c1-4-5-6-7(2)3/h7H,6H2,1-3H3
