12
gdb 2740	4.64919	2.28181	1.66983	3.6291	57.44	-0.247	0.0227	0.2697	713.3676	0.089611	-323.359336	-323.352647	-323.351703	-323.390098	23.899	
O	-0.067397002	 0.003771866	 0.0446231818	-0.34322
C	-0.052051288	 1.2003794253	 0.0311192126	 0.425006
N	-1.0270167434	 2.1589768317	-0.0477140211	-0.316336
C	-0.1435592648	 3.3211197241	 0.0484181546	-0.166912
C	 1.0595349679	 2.3174551652	 0.0779942412	-0.323145
C	 1.9271926814	 2.3371503334	 1.2313880082	 0.334501
C	 2.6362772942	 2.3492200882	 2.201806943	-0.45523
H	-2.0318924399	 2.0773245576	-0.0875444452	 0.257743
H	-0.1708006004	 3.983864291	-0.8213967973	 0.120204
H	-0.2589579718	 3.90064318	 0.9678596036	 0.12975
H	 1.6334939726	 2.3268095271	-0.8533975925	 0.134229
H	 3.2681875842	 2.3517779602	 3.0552068309	 0.203409
101.9781	132.5268	194.839	369.7262	396.7311	505.5233	532.7905	619.289	644.66	692.6593	743.9024	835.4648	893.6674	993.8619	1053.7706	1090.2149	1149.5502	1163.2921	1177.4344	1294.0768	1321.8954	1394.7244	1527.1183	1911.7535	2240.2514	3052.1231	3072.2447	3107.2273	3504.4794	3617.0714
O=C1NCC1C#C	O=C1NC[C@H]1C#C	
InChI=1S/C5H5NO/c1-2-4-3-6-5(4)7/h1,4H,3H2,(H,6,7)	InChI=1S/C5H5NO/c1-2-4-3-6-5(4)7/h1,4H,3H2,(H,6,7)/t4-/m1/s1
