10
gdb 3866	6.34914	2.86364	1.974	6.5881	51.77	-0.2477	-0.0749	0.1728	582.1207	0.067209	-351.628383	-351.622585	-351.621641	-351.657887	20.617	
N	-0.0003033115	 1.365121249	 0.0802769007	-0.55379
C	-0.0198546489	 0.0162867435	 0.0243728343	 0.44054
C	-1.2033544299	-0.7474488701	 0.0130484011	-0.018241
N	-1.1433038171	-2.0570339599	-0.0145074004	-0.158655
N	 0.0591017328	-2.656780078	-0.0303754753	-0.083857
N	 1.158079792	-1.946072295	-0.0254548096	-0.059467
N	 1.1559216154	-0.6216583703	-0.001490097	-0.249583
H	 0.8894160824	 1.827624192	-0.0176596179	 0.2798
H	-0.8390256844	 1.9026022137	-0.05050254	 0.274436
H	-2.1920812208	-0.2931952449	 0.0255991441	 0.128817
140.5261	198.0944	352.8819	365.9154	490.6203	573.6629	589.0345	680.6884	828.053	866.0223	934.9666	955.9028	1037.7376	1072.07	1103.4822	1247.6106	1357.285	1453.2822	1525.9882	1592.3567	1649.7738	3146.6061	3603.6568	3735.3163
NC1=CN=NN=N1	Nc1cnnnn1	
InChI=1S/C2H3N5/c3-2-1-4-6-7-5-2/h1H,(H2,3,5,6)	InChI=1S/C2H3N5/c3-2-1-4-6-7-5-2/h1H,(H2,3,5,6)
