13
gdb 965	3.60275	3.52939	1.80743	1.819	56.25	-0.1969	0.0129	0.2099	669.2522	0.102952	-340.671493	-340.664765	-340.663821	-340.702175	23.878	
C	 0.1335569989	 1.5169638266	 0.0360686776	-0.501074
C	-0.0448685503	 0.04493115	 0.0267399483	 0.284635
C	-1.1065398084	-0.8000920807	-0.0945830833	 0.175458
N	-2.4585436631	-0.5243276702	-0.3046742501	-0.598698
N	-0.6626105526	-2.115702187	-0.0494767952	-0.301732
C	 0.6189213195	-2.0109360604	 0.097461599	 0.068927
O	 1.0803712192	-0.7520673439	 0.1598302448	-0.17896
H	 0.8748302895	 1.8372644678	-0.7050954497	 0.140985
H	-0.8138364923	 2.0022065633	-0.214448224	 0.132881
H	 0.4601681701	 1.8964947249	 1.0124238595	 0.134135
H	-2.8034159166	 0.2588126501	 0.2338225956	 0.245193
H	-3.0206853359	-1.3459652162	-0.124470947	 0.253437
H	 1.3447052519	-2.8051573142	 0.1756424646	 0.144813
93.0529	175.8163	236.9154	249.8272	322.0617	437.1987	629.6587	643.6469	691.2496	741.0036	780.0881	824.7928	952.7766	967.2268	1049.4773	1064.7486	1160.7806	1205.7779	1273.2957	1322.1016	1400.3001	1435.1325	1472.2521	1493.5598	1557.6259	1640.8736	1705.5261	3019.4786	3069.2372	3113.8021	3273.6962	3546.8297	3640.6932
CC1=C(N)N=CO1	Cc1c(N)nco1	
InChI=1S/C4H6N2O/c1-3-4(5)6-2-7-3/h2H,5H2,1H3	InChI=1S/C4H6N2O/c1-3-4(5)6-2-7-3/h2H,5H2,1H3
