15
gdb 2434	5.49442	2.85847	2.48846	1.6431	60.11	-0.2252	0.0905	0.3157	604.1409	0.125438	-308.45482	-308.44905	-308.448106	-308.483947	22.953	
C	 0.0041943981	 1.4237924289	-0.0409481979	-0.505891
C	-0.0137959008	-0.0648014569	 0.0158740651	 0.485236
O	 0.9108429834	-0.8051872974	-0.7914617497	-0.327246
C	 0.1193575147	-1.9843675203	-0.4756175384	 0.07185
C	 0.4279315446	-2.2377248797	 1.0231176925	-0.23149
C	-0.3241324518	-0.9281559714	 1.2574071746	-0.154255
C	-1.1005345011	-1.0849378977	-0.0534679673	-0.195543
H	 0.9617757988	 1.8138605507	 0.3203603239	 0.133151
H	-0.1462816483	 1.7781612323	-1.0654870521	 0.13115
H	-0.7901964827	 1.836477924	 0.5881283136	 0.125263
H	 0.1646956058	-2.7577769404	-1.2392987211	 0.084527
H	-0.1283303412	-3.0943740158	 1.412972983	 0.101582
H	 1.4859001711	-2.3058577824	 1.2957244982	 0.099112
H	-0.6693723426	-0.4991431364	 2.1898489684	 0.087417
H	-2.1526101581	-1.0545114977	-0.301195623	 0.095136
194.1225	245.0912	298.2288	451.9727	550.5385	615.2278	747.0386	778.6887	793.261	825.272	878.2821	902.9843	928.9483	934.1204	959.9698	1002.2266	1056.8276	1084.6048	1096.6257	1105.8476	1151.3668	1161.243	1189.1719	1251.2805	1273.2323	1310.1652	1400.8983	1457.5344	1473.4682	1486.4538	1502.3361	3035.3488	3047.0601	3101.0762	3109.6293	3113.7912	3144.8209	3192.9533	3209.0322
CC12OC3CC1C23	C[C@@]12O[C@H]3C[C@@H]1[C@@H]23	
InChI=1S/C6H8O/c1-6-3-2-4(7-6)5(3)6/h3-5H,2H2,1H3	InChI=1S/C6H8O/c1-6-3-2-4(7-6)5(3)6/h3-5H,2H2,1H3/t3-,4+,5-,6-/m1/s1
