14
gdb 3149	4.2776	2.7435	1.95157	3.6082	58.89	-0.2467	0.0348	0.2815	669.2731	0.114095	-324.582904	-324.576296	-324.575352	-324.613702	23.844	
O	 0.035038088	 0.018387753	 0.0179035866	-0.372132
C	 0.0246648342	 1.2207876328	 0.0310510355	 0.395798
N	-0.9845482599	 2.1603843157	 0.065961856	-0.345518
C	-0.1016198109	 3.3350847707	 0.0523995634	-0.236285
C	 1.0646762562	 2.3304751158	 0.0165344461	 0.194009
C	 2.3800173902	 2.3305739824	 0.7385724415	-0.315186
C	 2.3441698146	 2.3429911449	-0.7672385759	-0.315138
H	-1.9883757662	 2.0704398108	 0.0817061039	 0.251908
H	-0.2075550677	 3.9649802836	-0.8373433929	 0.11437
H	-0.1640636011	 3.9526625849	 0.9547554709	 0.1144
H	 2.6749517362	 3.240196026	 1.2510819582	 0.119753
H	 2.6649193646	 1.4110966978	 1.2388044335	 0.137111
H	 2.6039879133	 1.4316413714	-1.2952537191	 0.137165
H	 2.6150850386	 3.2607724902	-1.2784214879	 0.119743
65.8594	189.5269	210.2036	252.4171	436.872	479.9224	624.3506	735.1347	766.3066	787.9599	874.0104	874.1437	953.8367	980.777	1014.1415	1060.1047	1078.7671	1097.138	1151.3055	1151.7226	1194.5528	1206.5365	1297.0819	1362.4927	1412.0674	1459.0232	1501.6774	1526.7678	1891.8419	3032.8025	3078.6746	3130.8406	3132.9919	3212.786	3226.8971	3630.3749
O=C1NCC11CC1	O=C1NCC21CC2	
InChI=1S/C5H7NO/c7-4-5(1-2-5)3-6-4/h1-3H2,(H,6,7)	InChI=1S/C5H7NO/c7-4-5(1-2-5)3-6-4/h1-3H2,(H,6,7)
