16
gdb 3608	4.06263	4.06168	2.8615	1.6943	62.48	-0.2197	0.075	0.2946	562.6006	0.140153	-288.584832	-288.579733	-288.578788	-288.613285	21.132	
C	-0.0490825818	 1.5301721874	 0.030139499	-0.240823
C	 1.4919451156	 1.5099596221	 0.0273552949	 0.019444
C	 2.1363436711	 1.1758418906	 1.3868345699	-0.240812
C	 1.7950024469	-0.2998323719	 1.1024528918	 0.019354
C	 0.3206439915	-0.680290856	 1.3431124264	-0.240888
C	 0.0042102913	-0.0098827751	-0.0082624032	 0.019361
N	 1.4979261961	 0.0250544567	-0.3705426628	-0.160294
H	-0.559247225	 2.0102761975	 0.8710703102	 0.095289
H	-0.4451770376	 1.9409604845	-0.9022675169	 0.108687
H	 2.0083317052	 2.2234661488	-0.6184944404	 0.07089
H	 3.2159919908	 1.3466311335	 1.3701040212	 0.108626
H	 1.7204956557	 1.6406385665	 2.2862791781	 0.095334
H	 2.5564640307	-1.0501074197	 1.3263765377	 0.070909
H	 0.173785043	-1.7626296468	 1.2977246272	 0.108691
H	-0.1739432514	-0.2954870061	 2.2405292963	 0.09531
H	-0.682846212	-0.5255243222	-0.6827515192	 0.070922
296.1574	301.6579	399.6003	659.1312	659.4981	729.6947	823.1872	825.9267	906.7165	908.444	921.8343	938.2701	946.4181	949.2595	970.9906	1058.1516	1059.8705	1069.017	1142.2181	1142.4271	1144.3289	1214.8462	1215.4557	1250.6003	1257.3432	1286.11	1287.0992	1306.72	1361.5233	1362.5079	1475.0867	1476.3445	1492.6319	3045.4918	3045.6062	3047.4057	3075.6022	3075.7926	3079.8539	3101.7092	3101.7517	3107.6548
C1C2CC3CC1N23	C1[C@H]2C[C@H]3C[C@@H]1N23	
InChI=1S/C6H9N/c1-4-2-6-3-5(1)7(4)6/h4-6H,1-3H2	InChI=1S/C6H9N/c1-4-2-6-3-5(1)7(4)6/h4-6H,1-3H2/t4-,5+,6-
