12
gdb 4717	7.24235	1.29011	1.09505	4.2199	61.82	-0.2296	-0.0482	0.1815	974.226	0.08524	-414.715047	-414.70836	-414.707415	-414.74598	24.353	
O	 0.0752544122	 1.3168458194	 0.190489576	-0.412899
C	 0.0691291009	-0.0086457583	 0.0300528046	 0.465892
N	 0.0911532966	-0.6554567368	-1.11889686	-0.349425
C	 0.07305172	-1.9766686096	-0.7680208815	-0.127179
C	 0.0399958842	-2.1347909231	 0.6027632289	 0.206073
N	 0.0380243983	-0.8245726904	 1.1008168379	-0.374327
C	 0.0117152594	-3.3101473756	 1.4440579838	 0.066623
O	 0.0128132905	-4.4530453984	 1.0361528289	-0.27866
H	 0.0988501437	 1.7020548387	-0.6956059442	 0.323486
H	 0.0844151294	-2.7633657488	-1.5060939797	 0.146769
H	 0.0175990581	-0.5372073175	 2.0653916516	 0.281618
H	-0.0120900533	-3.0903509093	 2.5382982938	 0.05203
125.6905	175.2413	239.9425	334.4825	396.8979	443.157	502.2315	508.1664	640.4114	724.5914	740.7577	782.314	895.5011	1008.1762	1021.9262	1052.8537	1167.7766	1195.1562	1242.7397	1324.2886	1364.8019	1451.8917	1501.3169	1600.3003	1630.688	1780.2604	2839.389	3266.6431	3663.8387	3794.4199
OC1=NC=C(N1)C=O	Oc1ncc([nH]1)C=O	
InChI=1S/C4H4N2O2/c7-2-3-1-5-4(8)6-3/h1-2H,(H2,5,6,8)	InChI=1S/C4H4N2O2/c7-2-3-1-5-4(8)6-3/h1-2H,(H2,5,6,8)
