14
gdb 822	7.38103	1.89293	1.6709	1.2435	61.76	-0.23	0.0164	0.2464	740.1344	0.113561	-324.502429	-324.496159	-324.495215	-324.532357	23.968	
O	-0.1582731389	 1.3153133309	-0.0275546136	-0.397505
N	 0.0222312653	-0.0833320801	 0.0421886562	-0.265262
C	-1.0901778652	-0.6823397552	-0.050769424	 0.448223
C	-2.5588623565	-0.2622167661	-0.0707571966	-0.327976
C	-2.9100508741	-1.7568339424	 0.0721806191	-0.043672
C	-2.3428239634	-2.5261477482	-1.0746247999	-0.273804
C	-1.4077306539	-2.1303437357	 0.0549061396	-0.136082
H	 0.7433632303	 1.637625388	 0.0735038599	 0.305029
H	-2.8006526118	 0.3424633268	 0.8078487375	 0.13153
H	-2.9303657529	 0.248609159	-0.9641862269	 0.118429
H	-3.6792395787	-2.1552502881	 0.7202211795	 0.099446
H	-2.582600844	-3.5844767648	-1.1000996157	 0.119749
H	-2.242592907	-2.066676733	-2.0545190766	 0.118412
H	-0.8603239594	-2.8666344512	 0.6285464016	 0.103483
126.3631	213.8209	304.5906	376.4663	428.4547	483.7954	561.5312	683.663	762.9134	802.5066	850.6187	904.6887	955.612	960.8343	979.8496	1019.945	1041.4271	1069.4761	1086.8388	1124.7345	1175.3112	1200.8001	1233.5373	1297.0417	1334.2277	1411.4494	1467.3138	1493.431	1786.3651	3055.4717	3105.6609	3114.6341	3199.041	3200.2489	3212.7245	3822.0044
ON=C1CC2CC12	ON=C1C[C@H]2C[C@@H]12	
InChI=1S/C5H7NO/c7-6-5-2-3-1-4(3)5/h3-4,7H,1-2H2	InChI=1S/C5H7NO/c7-6-5-2-3-1-4(3)5/h3-4,7H,1-2H2/t3-,4-/m1/s1
