16
gdb 3328	6.38394	1.80598	1.64978	2.6465	59.83	-0.2311	0.0713	0.3024	778.0691	0.137609	-325.715957	-325.709188	-325.708244	-325.746759	25.107	
O	-0.058620029	 1.4241005552	-0.1821122433	-0.421374
C	 0.0670094754	 0.0318357715	 0.0731576449	-0.099086
C	-1.3256401888	-0.5656202918	-0.0010454892	 0.027875
C	-2.0555218084	-0.682141248	-1.3659833007	-0.173816
N	-2.3362589173	-2.1519262782	-1.1607856488	-0.126336
C	-1.0133838697	-2.7921153269	-1.0943265977	-0.23543
C	-1.4953589514	-2.0800495084	 0.1074498813	-0.060222
H	 0.8201774057	 1.8142017114	-0.1737003828	 0.288211
H	 0.7294947896	-0.4478910168	-0.6638930492	 0.083147
H	 0.4966133573	-0.1583238957	 1.0709887476	 0.086389
H	-1.9601366673	-0.047734997	 0.7232163594	 0.091824
H	-2.9892433512	-0.12135779	-1.4235684619	 0.11471
H	-1.458088642	-0.4727812217	-2.2600665799	 0.103039
H	-1.0677566471	-3.8766265194	-1.0807079663	 0.119821
H	-0.1999204026	-2.3898332383	-1.6946643032	 0.108128
H	-1.7869092932	-2.612069346	 1.0079732498	 0.093121
89.3012	158.3839	225.7017	277.2613	405.2451	437.1656	509.2763	708.3271	754.4288	785.903	868.3689	906.4487	956.7835	988.0628	1007.6471	1059.439	1080.4243	1096.521	1105.7005	1120.6268	1159.8493	1198.5191	1209.0925	1240.8467	1264.517	1282.1391	1297.7821	1365.4511	1381.1632	1461.8409	1492.0926	1507.5172	1522.8678	2961.3157	2993.8447	3046.9741	3075.209	3101.9474	3121.7697	3154.403	3192.995	3830.0948
OCC1CN2CC12	OC[C@H]1CN2C[C@@H]12	
InChI=1S/C5H9NO/c7-3-4-1-6-2-5(4)6/h4-5,7H,1-3H2	InChI=1S/C5H9NO/c7-3-4-1-6-2-5(4)6/h4-5,7H,1-3H2/t4-,5+,6?/m1/s1
