10
gdb 3848	5.84719	2.9921	1.97927	0.7933	52.49	-0.2665	-0.0999	0.1667	581.3851	0.067923	-355.460155	-355.454836	-355.453892	-355.489435	19.117	
N	-0.0607409876	 1.2598110383	 0.3262095247	-0.509379
C	-0.0312969068	 0.0501647547	-0.0500724525	 0.392895
O	 1.1382211245	-0.5900542056	-0.4004770158	-0.272278
N	 1.1373433407	-1.9283234886	-0.8123803072	-0.05729
C	-0.0059058293	-2.5103393019	-0.8417318059	 0.106236
N	-1.2556772713	-1.9858536468	-0.516447553	-0.232754
C	-1.2460056326	-0.7597163202	-0.1402175622	 0.013653
H	 0.8745620174	 1.67188844	 0.3304923397	 0.240111
H	 0.0200276141	-3.545747928	-1.1638766559	 0.156682
H	-2.1759746091	-0.2660322919	 0.133661808	 0.162125
102.7249	321.502	409.8785	500.9203	542.5323	633.1977	724.9742	795.0451	880.8579	911.3717	935.0454	980.5779	1000.8924	1087.2287	1102.0647	1310.2131	1355.0245	1368.8086	1595.5532	1676.2791	1730.1693	3169.5141	3205.9217	3474.5977
N=C1ON=CN=C1	[NH]C1=C[N]C=NO1	
InChI=1S/C3H3N3O/c4-3-1-5-2-6-7-3/h1-2,4H	InChI=1S/C3H3N3O/c4-3-1-5-2-6-7-3/h1-2,4H
