17
gdb 2347	5.93201	1.28421	1.15951	2.4056	60.78	-0.2536	0.0806	0.3342	1021.6565	0.147245	-346.825923	-346.81777	-346.816826	-346.858577	29.156	
O	 0.0026012178	 1.4051227311	-0.0178271931	-0.421235
C	-0.0121500906	-0.0002465074	 0.1860620578	-0.065104
C	-1.340114617	-0.5345788965	-0.3380499364	-0.189986
C	-1.453989489	-2.0369097071	-0.1971795621	-0.019092
C	-1.8619107503	-2.6565479715	 1.1302814489	-0.326896
C	-2.7930944063	-2.7000333536	-0.0557416374	 0.091575
O	-3.9185676854	-1.8700789297	-0.0826363497	-0.415301
H	 0.8370652605	 1.7480622001	 0.3143959018	 0.283669
H	 0.8225258539	-0.487988787	-0.3449512233	 0.078317
H	 0.0928894336	-0.2519242466	 1.2536580944	 0.084309
H	-2.1605419371	-0.0458774809	 0.1944477938	 0.117319
H	-1.43867187	-0.2469931732	-1.3917759148	 0.106609
H	-0.7233422603	-2.601413713	-0.7720652159	 0.083633
H	-1.385111507	-3.5718926684	 1.4640232577	 0.107789
H	-2.1299048822	-1.9660827396	 1.924161697	 0.113085
H	-2.9282945792	-3.6597634999	-0.5550178515	 0.083545
H	-4.5503124516	-2.2065914667	 0.5609476529	 0.287765
85.3885	96.3652	132.2299	254.4105	261.8441	297.002	323.6146	407.6864	479.8897	572.3751	766.2864	796.982	840.3354	892.4104	953.1547	984.6678	1029.5229	1046.8146	1076.1509	1090.0418	1136.1034	1177.6666	1181.6296	1237.1198	1239.9039	1243.1373	1300.4446	1307.8564	1325.2515	1402.1206	1426.4624	1461.74	1487.7665	1497.0963	1528.2298	2957.5167	2985.8797	3042.2151	3092.6659	3099.862	3125.7384	3133.3653	3214.6654	3810.4936	3830.7784
OCCC1CC1O	OCC[C@H]1C[C@H]1O	
InChI=1S/C5H10O2/c6-2-1-4-3-5(4)7/h4-7H,1-3H2	InChI=1S/C5H10O2/c6-2-1-4-3-5(4)7/h4-7H,1-3H2/t4-,5+/m0/s1
