12
gdb 3380	5.55031	2.36625	2.16149	4.8281	54.13	-0.2616	0.0255	0.2871	619.7025	0.090952	-323.337623	-323.331899	-323.330955	-323.367202	20.958	
N	 0.0426285119	-1.1534580138	 0.0064531464	-0.340961
C	 0.0440965995	 0.0030814536	 0.0158313048	 0.309605
C	 0.0435512595	 1.4397366683	 0.0426428305	-0.215462
C	 0.4439557014	 2.2378799147	 1.283951138	-0.142007
C	 1.6312114463	 1.5563322942	 1.9573422752	-0.098673
O	 2.3764502965	 1.5517840554	 0.7024328614	-0.268882
C	 1.3246941549	 2.2515791161	 0.0655492799	 0.102445
H	-0.7608268697	 1.9032958898	-0.5210605595	 0.140304
H	-0.2097349403	 2.9833942549	 1.7142785021	 0.120685
H	 2.1330347374	 2.1940939058	 2.6909031454	 0.126189
H	 1.4842132498	 0.5491005245	 2.3582446283	 0.140117
H	 1.5701556527	 2.9987326564	-0.6800067223	 0.126641
141.2492	169.2399	352.3696	389.5322	573.3176	640.4785	754.6724	791.4492	798.2956	904.6969	960.9582	964.1091	988.6933	1027.3142	1053.3873	1073.24	1102.2793	1158.9057	1163.7305	1256.995	1304.3008	1351.7799	1410.7895	1509.5904	2355.3903	3050.6473	3108.2989	3162.856	3188.2131	3216.6225
N#CC1C2COC12	N#C[C@H]1[C@H]2CO[C@@H]12	
InChI=1S/C5H5NO/c6-1-3-4-2-7-5(3)4/h3-5H,2H2	InChI=1S/C5H5NO/c6-1-3-4-2-7-5(3)4/h3-5H,2H2/t3-,4+,5-/m0/s1
