14
gdb 2834	5.19738	1.72203	1.44657	3.7059	58.51	-0.2968	-0.0028	0.2941	842.0586	0.112511	-324.570042	-324.562758	-324.561814	-324.601728	25.356	
C	-0.2391967598	 1.4800993031	 0.166433306	-0.381373
C	 0.320370215	 0.0898182132	-0.1594053455	-0.224971
C	 0.9788746295	-0.5416901062	 1.0399707975	 0.091227
O	 0.1249999847	-1.0609845868	 2.0623134871	-0.231343
C	 0.9296040768	-1.9913551445	 1.3369484088	-0.106879
C	 0.2339427806	-2.9134478085	 0.4642207078	 0.302435
N	-0.2962614178	-3.6664922817	-0.2342641069	-0.326615
H	 0.5512265293	 2.1599557335	 0.5022835743	 0.119196
H	-0.7100783133	 1.9237754882	-0.714780505	 0.12502
H	-0.9901766436	 1.4179915293	 0.9593367762	 0.139113
H	-0.4781136166	-0.5665391766	-0.5190881275	 0.13261
H	 1.0648469572	 0.1591683983	-0.9624452238	 0.11447
H	 1.8510650122	-0.0144442643	 1.4325953211	 0.107477
H	 1.7395383257	-2.4461350069	 1.9047369398	 0.139633
78.0183	119.8296	194.7163	236.7744	259.7399	383.1351	454.4542	579.2043	617.6312	761.0281	793.5275	846.1391	942.8268	960.7941	1028.4346	1064.7093	1094.8339	1158.2473	1175.118	1280.0443	1293.4512	1341.9938	1385.4701	1411.7075	1461.5227	1474.9097	1499.5736	1508.1476	2359.9926	3036.5042	3040.2243	3081.445	3096.0479	3112.8379	3122.2596	3131.5066
CCC1OC1C#N	CC[C@H]1O[C@H]1C#N	
InChI=1S/C5H7NO/c1-2-4-5(3-6)7-4/h4-5H,2H2,1H3	InChI=1S/C5H7NO/c1-2-4-5(3-6)7-4/h4-5H,2H2,1H3/t4-,5+/m1/s1
