17
gdb 2098	4.77072	2.3799	1.72725	1.1795	65.89	-0.2429	0.022	0.2649	756.3179	0.149678	-309.726244	-309.719536	-309.718592	-309.756595	25.614	
C	-0.0767148215	 1.5453676491	-0.0035424925	-0.401037
C	 0.0151276213	 0.0135283958	 0.0121186975	-0.028832
C	 0.7351059786	-0.5135833991	-1.2361212516	-0.079619
O	 0.9935381838	-1.9032936785	-1.1461949115	-0.250463
C	 1.9015847252	-2.2221371129	-0.1103905114	-0.112956
C	 1.6162306595	-1.49318678	 1.1736747805	-0.089472
C	 0.7382894682	-0.4951610119	 1.2362589136	-0.047314
H	 0.9204214746	 1.999247729	 0.003786262	 0.119082
H	-0.6042586341	 1.9009984946	-0.8950895814	 0.11443
H	-0.6175445852	 1.9145763952	 0.8737464599	 0.11612
H	-1.0084938568	-0.3896406187	 0.0113096489	 0.089028
H	 0.1248763763	-0.3738322752	-2.1336047927	 0.103795
H	 1.676849728	 0.0452510625	-1.3762398194	 0.083365
H	 1.8236871357	-3.3059600025	 0.0392375754	 0.115731
H	 2.9418688046	-2.0221957303	-0.4308072613	 0.094714
H	 2.1627453021	-1.823902198	 2.0532315349	 0.090157
H	 0.5320732697	 0.0006809609	 2.1825162191	 0.083271
118.7022	225.5092	282.298	287.981	334.631	460.4192	498.274	532.2426	701.6949	766.383	856.7376	900.4122	927.8589	969.6629	997.5952	1001.6724	1035.3952	1093.997	1110.1983	1133.6655	1167.5124	1219.5986	1248.1772	1309.2892	1316.9515	1347.4096	1373.134	1403.3774	1409.4227	1429.9546	1485.5096	1494.7895	1499.8426	1500.6915	1722.6066	2924.978	2955.985	2994.468	3029.0521	3045.4054	3078.8244	3098.8751	3100.8229	3140.5964	3168.3157
CC1COCC=C1	C[C@H]1COCC=C1	
InChI=1S/C6H10O/c1-6-3-2-4-7-5-6/h2-3,6H,4-5H2,1H3	InChI=1S/C6H10O/c1-6-3-2-4-7-5-6/h2-3,6H,4-5H2,1H3/t6-/m1/s1
