15
gdb 2941	5.93808	2.00867	1.64001	2.7074	58.53	-0.2359	0.0086	0.2445	753.5015	0.125771	-345.649146	-345.64248	-345.641536	-345.680008	24.325	
O	 0.0745830949	 1.3462270654	-0.2030958001	-0.422718
C	 0.0598589768	-0.0553539545	-0.0340267434	-0.05344
C	-1.3659272012	-0.5595088428	 0.2160138054	 0.06435
O	-2.1918557248	-0.1159786081	-0.8745237287	-0.290435
C	-2.7830304947	-1.2327651863	-1.5391310834	-0.114737
C	-2.3028444616	-2.436350811	-0.7782957759	-0.090813
C	-1.5156031852	-2.0545353003	 0.2206236102	-0.096842
H	-0.6092876553	 1.5343913112	-0.8578103446	 0.290602
H	 0.4712595009	-0.5780839101	-0.9129951402	 0.082984
H	 0.6984014322	-0.2851201811	 0.8264643228	 0.102009
H	-1.737514141	-0.0932317473	 1.1420502724	 0.090264
H	-3.8794879508	-1.1336016095	-1.5229524157	 0.110228
H	-2.475799744	-1.251353279	-2.5963862874	 0.108584
H	-2.5849934975	-3.4492904975	-1.0361234733	 0.110167
H	-1.0258581986	-2.6934284991	 0.9443462419	 0.109796
87.4125	130.8884	204.8356	331.6321	450.2484	477.624	502.9026	703.2858	757.8482	807.4761	835.9165	938.1324	960.2572	993.4342	1023.0607	1044.2906	1078.9101	1086.9094	1110.7926	1132.7534	1195.4805	1225.1246	1283.7062	1338.0005	1361.6432	1384.3019	1392.4855	1434.9676	1499.3303	1521.2152	1689.7767	2968.7347	2978.9477	2986.4609	2996.5383	3067.8076	3207.6675	3231.855	3784.5054
OCC1OCC=C1	OC[C@H]1OCC=C1	
InChI=1S/C5H8O2/c6-4-5-2-1-3-7-5/h1-2,5-6H,3-4H2	InChI=1S/C5H8O2/c6-4-5-2-1-3-7-5/h1-2,5-6H,3-4H2/t5-/m0/s1
