17
gdb 3075	10.2139	1.04009	0.99956	1.1693	61.81	-0.2541	0.092	0.3461	1168.8541	0.146851	-346.817778	-346.809677	-346.808733	-346.850884	27.554	
C	-0.0484541945	 1.3281131702	 0.2084879595	-0.228894
O	-0.0211381339	-0.0455962414	-0.0938270075	-0.231474
C	-1.2852762982	-0.6584940781	 0.0265768814	-0.043572
C	-1.133615173	-2.1406253539	-0.3003252199	-0.237021
C	-2.4526875605	-2.8686892536	-0.2447809187	 0.095067
C	-2.5735944486	-4.2432908284	 0.2540667317	-0.179624
O	-2.9830668203	-3.1370946376	 1.0590480099	-0.236102
H	 0.9683715573	 1.7104601014	 0.0898458101	 0.12618
H	-0.7177145078	 1.8833422774	-0.4684449155	 0.102165
H	-0.3798309265	 1.5135728353	 1.2426528092	 0.105055
H	-1.6828603134	-0.5386256055	 1.0476989272	 0.104043
H	-2.0097087262	-0.1856455071	-0.660701385	 0.081135
H	-0.701398532	-2.2402713522	-1.3035182427	 0.110739
H	-0.4312532448	-2.5936977727	 0.4067426524	 0.113106
H	-3.2071469543	-2.5270327186	-0.9570109491	 0.090798
H	-3.3773584818	-4.8839367255	-0.1064870381	 0.114094
H	-1.6826041512	-4.7674007395	 0.5981080752	 0.114305
65.1587	92.6186	118.1602	145.4662	236.5682	300.5569	341.8241	468.8341	487.0694	779.1715	819.6177	874.3977	948.0671	987.7409	1024.5781	1064.0607	1105.9356	1153.6154	1158.0989	1166.8599	1175.1929	1190.9676	1227.6868	1243.5233	1292.0238	1309.5407	1310.5999	1422.4602	1450.7519	1477.1679	1481.5762	1485.8613	1505.1903	1530.5343	1533.0701	2942.8343	2968.5351	2986.7313	3010.9672	3039.3672	3078.0842	3082.2759	3097.1033	3112.8382	3166.858
COCCC1CO1	COCC[C@H]1CO1	
InChI=1S/C5H10O2/c1-6-3-2-5-4-7-5/h5H,2-4H2,1H3	InChI=1S/C5H10O2/c1-6-3-2-5-4-7-5/h5H,2-4H2,1H3/t5-/m0/s1
