15
gdb 3226	5.18851	2.68292	2.32003	1.9413	59.75	-0.2259	0.067	0.293	629.4761	0.124496	-308.439671	-308.433621	-308.432676	-308.469047	24.01	
C	-0.017007896	 1.5351851645	 0.0393559824	-0.494941
C	 0.0250618614	 0.0362886421	 0.0157907483	 0.313982
C	-0.8777057653	-0.8753586459	 0.8020300544	-0.327609
C	 0.6147032588	-0.9482759659	 1.0218402073	-0.145667
C	 1.3205460291	-1.6900842915	-0.155283597	 0.026896
O	 0.3369366291	-2.1415682348	-1.0991124749	-0.239017
C	 0.7467889972	-0.7673156302	-1.1257059734	-0.034354
H	 0.9638355497	 1.9695962159	-0.1886078584	 0.117286
H	-0.7311930249	 1.9268703435	-0.6956941325	 0.122163
H	-0.3209191481	 1.9030688696	 1.0245286911	 0.12161
H	-1.4247685888	-0.3853724757	 1.6020000629	 0.107704
H	-1.3974722646	-1.6949623854	 0.3218707494	 0.134072
H	 1.0884683802	-0.7383464375	 1.9719893755	 0.090121
H	 2.2674946404	-2.2152370527	-0.1291650329	 0.106259
H	 1.1207262017	-0.369884566	-2.0624674822	 0.101496
205.8574	228.5103	283.4545	413.6788	436.7967	543.362	636.6876	752.359	774.9906	808.1352	850.6728	873.4565	904.2285	925.8956	973.0491	976.8545	1012.6545	1039.2817	1086.199	1096.3808	1116.7613	1196.0537	1219.5146	1259.303	1276.9084	1355.5774	1400.1684	1420.5718	1476.2837	1484.9812	1499.7284	3016.8413	3071.6428	3096.9501	3135.0678	3177.3827	3192.5743	3201.7496	3226.9782
CC12CC1C1OC21	C[C@]12C[C@H]1[C@H]1O[C@@H]21	
InChI=1S/C6H8O/c1-6-2-3(6)4-5(6)7-4/h3-5H,2H2,1H3	InChI=1S/C6H8O/c1-6-2-3(6)4-5(6)7-4/h3-5H,2H2,1H3/t3-,4+,5+,6-/m0/s1
