15
gdb 4547	3.98641	1.76465	1.23459	1.8773	64.39	-0.1709	0.059	0.2299	939.2513	0.120128	-396.019458	-396.011399	-396.010455	-396.051746	29.357	
C	-0.0325298985	 1.4772202203	 0.009041008	-0.344379
N	 0.0264116752	 0.0333923205	-0.0240436945	-0.045349
C	 0.0426792978	-0.7867354539	-1.1667392566	-0.2263
C	 0.1049208079	-2.0674003453	-0.6877481789	 0.28581
N	 0.2125200899	-3.2763648999	-1.3803098249	-0.595478
N	 0.1243741656	-2.075258984	 0.6944720568	-0.424245
C	 0.07823837	-0.8083547456	 1.0278919161	 0.444183
O	 0.0734203632	-0.32431172	 2.2850228306	-0.43261
H	 0.8316685828	 1.9149385904	-0.502173861	 0.137291
H	-0.9459310527	 1.8421991318	-0.4731064596	 0.135619
H	-0.0289089801	 1.8042057911	 1.0489982481	 0.160791
H	 0.0207441162	-0.3699184807	-2.1584681176	 0.107295
H	-0.2725942648	-3.2749572774	-2.2673673373	 0.239392
H	-0.1070571675	-4.0468938033	-0.8075354318	 0.245798
H	 0.1244141649	-1.0940207941	 2.8646866726	 0.312183
82.5193	141.0393	211.7771	251.3887	277.2928	320.6119	338.6531	387.2529	531.854	581.5104	612.4277	661.9204	674.9559	714.2448	768.608	855.239	1025.8458	1064.5324	1107.5409	1154.413	1179.3939	1217.0963	1304.052	1361.9393	1410.0529	1455.5726	1487.8149	1512.0304	1592.3397	1610.3833	1628.7407	1659.677	3031.3478	3084.1133	3154.4095	3281.3038	3543.2226	3639.6926	3813.4657
CN1C=C(N)N=C1O	Cn1cc(N)nc1O	
InChI=1S/C4H7N3O/c1-7-2-3(5)6-4(7)8/h2H,5H2,1H3,(H,6,8)	InChI=1S/C4H7N3O/c1-7-2-3(5)6-4(7)8/h2H,5H2,1H3,(H,6,8)
