17
gdb 4541	3.95923	1.64525	1.17954	1.0374	72.28	-0.1757	0.064	0.2397	1016.5794	0.141555	-363.899921	-363.891181	-363.890236	-363.933213	31.234	
C	-0.0456057176	 1.4591255244	 0.022580046	-0.336564
N	 0.0408581941	 0.0152081343	 0.0051971542	-0.042109
C	 0.0421107276	-0.795075342	-1.1219420211	-0.210768
C	 0.0579704356	-2.1070562228	-0.7231846557	 0.298059
C	 0.0825061835	-3.3099944981	-1.6160487747	-0.495962
C	 0.0556491463	-2.1093232348	 0.7107398957	-0.416723
C	 0.0411945485	-0.7932243673	 1.105507919	 0.383202
O	 0.0255090962	-0.1925454227	 2.3265059855	-0.443653
H	 0.4641044203	 1.8620731759	-0.8558227475	 0.134433
H	-1.0853337102	 1.8083911865	 0.0162296343	 0.132973
H	 0.4419285245	 1.8435129524	 0.9200446759	 0.151804
H	 0.0380217155	-0.3559636824	-2.1069142503	 0.105215
H	 0.97779212	-3.9223772003	-1.452664554	 0.11898
H	-0.783148252	-3.9618011215	-1.4460881423	 0.119155
H	 0.0720866743	-3.0169878231	-2.6701986751	 0.11507
H	 0.0727007731	-2.9714328121	 1.3608365905	 0.080414
H	 0.0998615103	-0.8786192964	 2.9959728196	 0.306472
67.9509	119.5949	141.429	202.6378	226.2579	259.9478	293.7194	335.0315	493.8547	579.0706	618.9439	634.4699	658.0871	681.9191	718.1807	825.8243	986.9871	1014.4812	1061.664	1071.6331	1136.5185	1150.8985	1176.4079	1219.8666	1295.9011	1368.1688	1383.7126	1420.8634	1453.6632	1481.7499	1489.3912	1495.8183	1511.984	1560.263	1582.6885	1625.9021	3017.7298	3026.4376	3062.8651	3099.228	3099.7566	3141.9793	3233.7935	3255.9122	3852.4664
CN1C=C(C)C=C1O	Cn1cc(C)cc1O	
InChI=1S/C6H9NO/c1-5-3-6(8)7(2)4-5/h3-4,8H,1-2H3	InChI=1S/C6H9NO/c1-5-3-6(8)7(2)4-5/h3-4,8H,1-2H3
