9
gdb 3908	5.9318	3.00542	1.99475	2.7399	46.97	-0.2754	-0.116	0.1594	563.8335	0.055765	-375.35753	-375.352401	-375.351457	-375.386615	18.132	
O	 0.0348742701	-0.0099559144	 0.3352007102	-0.307754
C	 0.0265731619	 1.1426072238	 0.0089020964	 0.427224
O	-1.1733052646	 1.7698411788	-0.2633685353	-0.239706
N	-1.2407905925	 3.1041269259	-0.6456961675	-0.04178
C	-0.1194886028	 3.7290002867	-0.7334092039	 0.111496
N	 1.1550012548	 3.238839646	-0.4939673613	-0.205224
C	 1.212256166	 2.0055664927	-0.1409963024	-0.072994
H	-0.1981386084	 4.7680054994	-1.0332014102	 0.163008
H	 2.1748108155	 1.5420133412	 0.0662409839	 0.16573
122.445	335.5841	442.8264	528.3786	550.7419	620.9433	750.1862	790.0897	921.1478	930.7227	988.3549	998.9264	1108.2151	1198.6348	1355.1565	1359.6327	1574.5279	1672.0911	1852.3835	3164.9505	3212.2037
O=C1ON=CN=C1	O=c1oncnc1	
InChI=1S/C3H2N2O2/c6-3-1-4-2-5-7-3/h1-2H	InChI=1S/C3H2N2O2/c6-3-1-4-2-5-7-3/h1-2H
