14
gdb 2473	5.40636	2.76153	2.53883	3.0411	58.3	-0.2554	0.0314	0.2868	587.3888	0.116396	-324.567893	-324.562755	-324.56181	-324.59659	20.776	
N	-0.0705923652	 1.2232390014	-0.0212946214	-0.575995
C	-0.0653989449	-0.0352811376	-0.0068018152	 0.456612
O	 1.041701027	-0.8645850331	-0.0261789488	-0.265517
C	 0.4186010944	-2.1839843747	 0.0054888962	 0.101336
C	-0.7118924471	-2.0383408117	-1.0376614658	-0.234082
C	-1.2182623447	-1.0073304542	 0.0347166544	-0.125132
C	-0.6557895777	-2.0134623278	 1.1027569835	-0.234082
H	 0.8847551228	 1.5855496665	-0.0505467044	 0.223195
H	 1.1908872678	-2.9494242699	-0.0058568994	 0.094047
H	-0.4381805873	-1.6642264358	-2.0260384593	 0.117997
H	-1.3532979447	-2.9180581761	-1.1091619762	 0.111873
H	-2.2204046831	-0.5902138608	 0.056136007	 0.099879
H	-1.2920334017	-2.8908911261	 1.2281696949	 0.111873
H	-0.3309103254	-1.6166582903	 2.0664834947	 0.117997
191.0638	426.305	466.6069	504.0037	628.8054	714.3064	804.8466	830.7877	855.4394	879.2763	885.2147	893.7647	943.1643	996.642	1002.0678	1035.8666	1053.8413	1106.2901	1106.9699	1126.9376	1216.8507	1237.0903	1243.0246	1255.682	1294.1254	1359.0697	1475.6729	1510.6622	1809.9246	3074.8596	3079.6556	3142.9129	3147.3666	3154.1797	3174.0903	3464.3955
N=C1OC2CC1C2	[NH][C]1O[C@@H]2C[C@H]1C2	
InChI=1S/C5H7NO/c6-5-3-1-4(2-3)7-5/h3-4,6H,1-2H2	InChI=1S/C5H7NO/c6-5-3-1-4(2-3)7-5/h3-4,6H,1-2H2/t3-,4+
