14
gdb 2931	6.34862	2.11279	1.76915	2.269	54.06	-0.2581	0.0216	0.2798	714.5172	0.11434	-361.72096	-361.714413	-361.713469	-361.751719	22.95	
C	 0.0376996896	 1.420639039	 0.039060165	-0.2457
O	 0.0102904162	 0.0018088946	 0.0000131867	-0.22595
C	 0.5666619953	-0.5475034634	-1.1419520341	 0.195953
C	 0.5109782146	-2.0854769808	-1.055683054	-0.203791
N	-0.521036391	-2.4935524101	-2.0213068741	-0.257959
C	-0.8504645802	-1.4332621424	-2.6285426111	 0.115683
O	-0.2497811452	-0.2557007405	-2.3092635501	-0.232949
H	 1.0655662491	 1.7997670812	-0.0583636848	 0.111219
H	-0.5771928785	 1.8545527787	-0.7573274593	 0.131895
H	-0.362485527	 1.7178436574	 1.0100822288	 0.134551
H	 1.5547950603	-0.1154982736	-1.3469251469	 0.08187
H	 1.466735813	-2.551313232	-1.3154823054	 0.120404
H	 0.241563184	-2.3922447013	-0.0417553076	 0.134337
H	-1.5863963401	-1.3621354668	-3.4217120431	 0.140437
97.5304	136.4739	187.1063	273.3104	424.2654	459.356	573.8441	761.0786	853.9022	887.6429	937.5079	956.5225	986.7068	1019.1607	1077.7023	1096.7539	1160.6268	1179.2235	1200.3365	1253.5894	1306.2597	1321.9963	1358.6413	1400.1637	1478.194	1482.6309	1486.6331	1510.2391	1710.4545	2998.1476	3024.8296	3058.5336	3073.0384	3106.9499	3133.4983	3216.4599
COC1CN=CO1	CO[C@H]1CN=CO1	
InChI=1S/C4H7NO2/c1-6-4-2-5-3-7-4/h3-4H,2H2,1H3	InChI=1S/C4H7NO2/c1-6-4-2-5-3-7-4/h3-4H,2H2,1H3/t4-/m1/s1
