15
gdb 4261	3.81938	1.8292	1.24647	6.7669	71.48	-0.2107	-0.0084	0.2022	931.799	0.120791	-362.730359	-362.723263	-362.722319	-362.761593	26.838	
C	-0.0227353	 1.5207219495	 0.0637820542	-0.49316
C	 0.0013997614	 0.0225883471	-0.0331925187	 0.410192
C	-0.026942573	-0.6783648544	-1.1943450237	-0.332234
C	-0.001605165	-2.1427782698	-1.241866611	 0.389383
O	-0.0270269653	-2.7823834778	-2.2893432768	-0.404201
C	 0.0570518728	-2.7683532071	 0.0835178073	-0.252073
C	 0.0834334025	-2.0255477578	 1.2114282468	 0.025926
N	 0.0564457316	-0.6553017992	 1.1639571092	-0.375192
H	 0.8736044299	 1.9005595471	 0.5687346993	 0.138122
H	-0.0667119399	 1.9656942212	-0.930741459	 0.152287
H	-0.8938583702	 1.8679762473	 0.6323193159	 0.138098
H	-0.0702944016	-0.1503779332	-2.1397023697	 0.102996
H	 0.0789361305	-3.8496590231	 0.1378553702	 0.110166
H	 0.1266862177	-2.4530327249	 2.2065643027	 0.129689
H	 0.0773501686	-0.131338225	 2.0228468033	 0.260001
121.4244	169.678	196.3882	305.7982	418.3372	479.9275	492.7956	512.9663	532.3777	576.6313	733.592	747.4228	837.7059	892.8005	908.1249	959.7634	977.1498	1036.9367	1065.0827	1097.8872	1190.0084	1236.4536	1245.0513	1371.5354	1414.799	1424.3934	1480.3375	1481.0432	1531.8434	1643.3516	1681.1305	1732.8061	3027.1259	3078.4111	3145.9105	3194.9647	3204.0883	3219.6591	3655.2827
CC1=CC(=O)C=CN1	Cc1cc(=O)cc[nH]1	
InChI=1S/C6H7NO/c1-5-4-6(8)2-3-7-5/h2-4H,1H3,(H,7,8)	InChI=1S/C6H7NO/c1-5-4-6(8)2-3-7-5/h2-4H,1H3,(H,7,8)
