15
gdb 2461	6.13454	2.27251	1.89446	2.0403	62.01	-0.2347	0.0075	0.2422	698.6621	0.125485	-308.512758	-308.506586	-308.505642	-308.542478	23.735	
C	 0.0393618802	 1.482883257	 0.0386214003	-0.486306
C	-0.028905506	-0.0091706541	-0.0167436455	 0.317502
C	-0.1107694056	-0.7810860988	-1.1082736613	-0.188561
C	-0.0490689935	-2.2250824214	-0.7421088025	 0.012598
O	 1.18821995	-2.5981665782	-0.0832327792	-0.260799
C	 0.0542725992	-2.2845680335	 0.7257644912	 0.041451
C	 0.0329890451	-0.8542030112	 1.2493766918	-0.32811
H	 0.989989791	 1.8185278122	 0.472424352	 0.13191
H	-0.0533430649	 1.9274624755	-0.9558232378	 0.12621
H	-0.7547672383	 1.8939235197	 0.6750335458	 0.124917
H	-0.1682563124	-0.4222668439	-2.1290127707	 0.092769
H	-0.4934139837	-3.0049560074	-1.3528401534	 0.093691
H	-0.3357079288	-3.1035198605	 1.3244666298	 0.092932
H	 0.9221858846	-0.627335454	 1.8505633849	 0.121956
H	-0.8391949567	-0.6775540413	 1.8933417148	 0.107841
163.33	189.4316	316.2295	360.5301	421.5538	504.4237	629.182	719.6338	803.3934	842.3673	856.436	869.8927	920.9756	953.8905	995.5805	1003.3994	1041.7973	1069.852	1113.976	1182.7807	1193.9036	1254.97	1283.6562	1309.8179	1351.3226	1408.5681	1415.394	1457.6035	1478.2934	1486.3424	1696.6906	3016.3183	3021.4192	3058.0795	3063.8262	3112.378	3145.2393	3165.0714	3203.8569
CC1=CC2OC2C1	CC1=C[C@H]2O[C@H]2C1	
InChI=1S/C6H8O/c1-4-2-5-6(3-4)7-5/h2,5-6H,3H2,1H3	InChI=1S/C6H8O/c1-4-2-5-6(3-4)7-5/h2,5-6H,3H2,1H3/t5-,6+/m1/s1
