17
gdb 3178	5.29735	2.24135	1.87767	1.809	63.41	-0.2542	0.0787	0.3329	729.4682	0.149795	-309.716743	-309.710295	-309.709351	-309.747471	24.757	
C	 0.2349695314	 1.4799178596	-0.0246734083	-0.256637
O	 1.2333924395	 0.4561041533	-0.018698191	-0.274316
C	-0.1477235097	 0.065229958	-0.0011863271	 0.456688
C	-0.6316923736	-0.6749018939	 1.2536179988	-0.285761
C	-1.5157613478	-1.8248408801	 0.7240030681	-0.202619
C	-0.9770207798	-2.0915327224	-0.6953484444	-0.207827
C	-0.6797911875	-0.6784722755	-1.2251413443	-0.275693
H	 0.1683042944	 2.0748351201	 0.8864530077	 0.107339
H	 0.1543707825	 2.0503450991	-0.9506701944	 0.106465
H	 0.2493400155	-1.063129083	 1.7752242598	 0.120033
H	-1.1602380682	-0.0198436301	 1.9516892788	 0.10136
H	-1.4904341752	-2.7082709669	 1.3672871525	 0.098813
H	-2.5611621512	-1.498969953	 0.6630071713	 0.098876
H	-0.0477815568	-2.6712152979	-0.6396289128	 0.10679
H	-1.6766055747	-2.6504776024	-1.3224278697	 0.094929
H	-1.6097912022	-0.207380429	-1.5683742294	 0.100747
H	 0.0377205834	-0.644598936	-2.0482996955	 0.110814
44.6301	234.2384	310.755	379.2422	403.8661	498.5653	561.5404	715.4648	797.3159	837.81	854.0198	901.1642	907.1685	933.3665	971.8471	981.0991	1033.2586	1045.5854	1129.2707	1149.4425	1175.8254	1188.4235	1213.6254	1239.8267	1260.0567	1305.6189	1318.141	1340.4889	1344.8217	1422.3753	1475.0218	1481.9205	1492.532	1508.2485	1532.618	3027.2754	3033.1035	3040.6022	3051.5899	3067.8985	3088.8107	3094.6412	3101.864	3106.9951	3150.5628
C1OC11CCCC1	C1OC21CCCC2	
InChI=1S/C6H10O/c1-2-4-6(3-1)5-7-6/h1-5H2	InChI=1S/C6H10O/c1-2-4-6(3-1)5-7-6/h1-5H2
