16
gdb 3985	5.18166	0.96541	0.82197	3.7818	66.02	-0.2475	-0.0006	0.2469	1317.2049	0.12826	-417.047906	-417.03859	-417.037646	-417.083507	31.524	
C	-0.0208893148	 1.44085828	 0.1043870022	-0.476929
C	 0.0363191475	-0.0575479074	 0.0134283736	 0.345662
C	-0.150559496	-0.8549240071	 1.2769490021	-0.203721
N	-0.0715885545	-2.2783618264	 1.0438527796	-0.279076
C	-0.2131181863	-3.1728493068	 2.0495933549	 0.153542
O	-0.4139207817	-2.8773870646	 3.210549464	-0.331179
N	 0.2334215937	-0.7090711103	-1.0660509063	-0.171976
O	 0.3926362102	 0.1361626301	-2.1704394841	-0.399322
H	 0.9163993294	 1.8789538022	-0.252725201	 0.155317
H	-0.8144306952	 1.830360544	-0.5409907064	 0.155327
H	-0.2008220957	 1.7702799335	 1.1296631685	 0.129992
H	 0.604112747	-0.5440066144	 2.0140387214	 0.140005
H	-1.1185279627	-0.592764993	 1.7284211869	 0.140001
H	 0.0939520786	-2.5750704353	 0.0941425827	 0.258627
H	-0.1246440613	-4.218595279	 1.6938399591	 0.074873
H	 0.5294485319	-0.4871545354	-2.8917580472	 0.308856
24.4867	58.5776	115.8438	137.2065	230.2797	274.3709	293.4249	303.2138	388.1891	421.9352	524.1026	548.074	630.5866	773.1127	888.4881	940.0086	993.2291	1034.5345	1034.5472	1075.8383	1083.5326	1208.7438	1249.2955	1249.9927	1373.0548	1403.8616	1406.3985	1423.8655	1473.49	1486.6075	1497.7311	1517.7717	1740.5788	1801.2523	2937.1603	3004.7183	3019.1649	3046.2725	3106.4842	3135.7037	3623.0926	3820.7795
CC(CNC=O)=NO	CC(=NO)CNC=O	
InChI=1S/C4H8N2O2/c1-4(6-8)2-5-3-7/h3,8H,2H2,1H3,(H,5,7)	InChI=1S/C4H8N2O2/c1-4(6-8)2-5-3-7/h3,8H,2H2,1H3,(H,5,7)
