15
gdb 3033	5.36104	1.78885	1.43825	0.9912	62.25	-0.2497	0.0331	0.2828	840.6233	0.123115	-308.449457	-308.44201	-308.441066	-308.481426	26.902	
C	 0.6961765081	-0.4803688949	 0.875322416	-0.469889
C	 0.2482648213	 0.4914349545	 0.3281009692	 0.327048
C	-0.3243365543	 1.6566567859	-0.3519993793	-0.225555
O	 0.6268052774	 2.5340937604	-0.931288972	-0.233726
C	 1.333138464	 3.3054617115	-0.0035138062	 0.147687
C	 2.6417333116	 2.8054825102	 0.5492677911	-0.277248
C	 2.6099566089	 3.9078562284	-0.4909584493	-0.292415
H	 1.0947443779	-1.3354440449	 1.3631003221	 0.201449
H	-0.9555090932	 1.3195014515	-1.1812258737	 0.139257
H	-0.9740247537	 2.204240586	 0.349447131	 0.119445
H	 0.693493263	 3.9014203378	 0.6491064874	 0.082539
H	 2.9012628252	 3.0542067963	 1.5724420216	 0.111258
H	 2.9639710336	 1.8255912167	 0.2202921575	 0.129432
H	 2.9105159952	 3.6446787923	-1.4986998797	 0.126909
H	 2.8477624951	 4.9231956982	-0.1949390757	 0.11381
55.1252	94.1758	210.815	253.2278	330.969	405.9326	416.819	607.1679	614.9561	677.0925	744.0109	809.7243	820.5818	921.458	960.0043	968.3499	1043.4637	1051.401	1070.1983	1086.3161	1126.8101	1189.0048	1192.2514	1239.6597	1302.3604	1377.6036	1415.3989	1454.829	1474.5814	1499.1392	2233.5926	2979.8371	3068.0821	3089.7683	3140.2989	3145.0164	3225.5569	3241.2988	3504.4016
C#CCOC1CC1	C#CCOC1CC1	
InChI=1S/C6H8O/c1-2-5-7-6-3-4-6/h1,6H,3-5H2	InChI=1S/C6H8O/c1-2-5-7-6-3-4-6/h1,6H,3-5H2
