15
gdb 2850	3.93714	2.04339	1.49925	2.9278	59.33	-0.2424	-0.0177	0.2247	816.2708	0.123194	-345.636611	-345.629092	-345.628148	-345.668551	26.219	
C	 0.1032506151	 1.0550329695	 0.3704792761	-0.244968
O	-0.1781713879	 0.0273247622	-0.5644385696	-0.229908
C	-1.3768306282	-0.6216083898	-0.3192059166	 0.127159
C	-1.517158202	-1.9914459055	-0.85021019	-0.332991
C	-1.4295123134	-1.7975037489	 0.6693395269	-0.140688
C	-0.1932486897	-2.2371814426	 1.350424582	 0.16377
O	-0.1559049702	-2.6835551157	 2.4725442014	-0.276857
H	 1.0400002164	 1.5207680505	 0.0584616299	 0.135869
H	-0.6904499818	 1.8159833402	 0.3804483531	 0.114292
H	 0.217844786	 0.6556884855	 1.387810027	 0.123966
H	-2.2532018851	 0.0284327671	-0.3083502078	 0.100436
H	-2.4666365535	-2.3120791904	-1.2614733349	 0.132675
H	-0.6399231667	-2.4138629922	-1.3292997202	 0.139569
H	-2.3346751713	-1.9187666771	 1.2540915981	 0.107635
H	 0.7307816424	-2.1299022228	 0.7404654146	 0.08004
78.9968	130.7888	171.351	221.6164	248.5299	322.3669	456.5557	464.5683	586.9025	762.045	832.3797	860.0561	946.3473	1004.321	1049.845	1068.9034	1095.1547	1124.8976	1156.9841	1180.7129	1184.4707	1219.1462	1260.2674	1337.3113	1399.3551	1441.1829	1470.6428	1486.9586	1492.5028	1506.8096	1810.0217	2889.5491	2991.9469	3046.6616	3091.6372	3130.0088	3141.0434	3179.9315	3233.2594
COC1CC1C=O	CO[C@H]1C[C@H]1C=O	
InChI=1S/C5H8O2/c1-7-5-2-4(5)3-6/h3-5H,2H2,1H3	InChI=1S/C5H8O2/c1-7-5-2-4(5)3-6/h3-5H,2H2,1H3/t4-,5-/m0/s1
