15
gdb 3353	4.93198	3.03306	2.26027	1.962	60.74	-0.2393	0.0121	0.2514	613.8288	0.127561	-308.507458	-308.501926	-308.500982	-308.53674	21.461	
C	 0.2125096007	 1.5431278263	 0.1840865181	-0.078697
O	 1.4254090354	 1.4909209666	-0.5974432177	-0.294332
C	 1.355829054	 0.0398939136	-0.6649358948	 0.095653
C	 2.2752126494	-0.6612825081	 0.2972844056	-0.081426
C	 1.6177286891	-1.1201234256	 1.3631089409	-0.057139
C	 0.1304395049	-0.8435500939	 1.3128306114	-0.277071
C	-0.0222935496	 0.0217567951	 0.048110767	-0.071205
H	 0.3953734377	 1.8895682381	 1.2105399322	 0.096491
H	-0.5381110443	 2.1920636116	-0.2820715233	 0.100952
H	 1.4420076786	-0.3008350179	-1.7029142756	 0.07548
H	 3.3420866039	-0.750732903	 0.1275924711	 0.098944
H	 2.0746203973	-1.6476189129	 2.1944103865	 0.097577
H	-0.446537801	-1.7752859657	 1.2472334708	 0.108532
H	-0.2247712666	-0.3295577433	 2.2158326287	 0.107555
H	-0.8847924594	-0.242549541	-0.5634475607	 0.078686
120.2596	264.4942	367.6606	486.1227	654.9601	742.726	745.9156	818.8865	862.1151	890.9612	930.6847	946.9064	972.9446	981.0101	1012.519	1017.6866	1077.1694	1084.2227	1129.4084	1160.7017	1194.1086	1224.268	1265.9746	1306.2541	1317.8184	1337.7412	1357.1171	1383.5398	1485.1205	1521.0703	1676.0197	3004.0389	3016.4243	3040.9251	3042.1091	3053.3152	3111.8963	3179.1589	3208.6189
C1OC2C=CCC12	C1O[C@H]2C=CC[C@@H]12	
InChI=1S/C6H8O/c1-2-5-4-7-6(5)3-1/h1,3,5-6H,2,4H2	InChI=1S/C6H8O/c1-2-5-4-7-6(5)3-1/h1,3,5-6H,2,4H2/t5-,6-/m0/s1
