15
gdb 2397	5.74999	1.97668	1.76673	1.9948	57.22	-0.2527	0.0694	0.3221	747.3751	0.123915	-345.611239	-345.604364	-345.60342	-345.642095	24.782	
C	 0.0099402881	 1.5424916061	-0.1219312902	-0.417415
C	-0.0290761128	 0.0462093491	 0.0411380642	-0.011259
O	 1.2301855577	-0.6538934161	-0.0581068428	-0.278297
C	 0.5665652158	-0.6414646828	 1.1852297934	 0.356847
C	 1.1554203825	-0.1222241802	 2.4942020719	-0.151506
O	 0.6329467879	-1.2756975004	 3.191164933	-0.275559
C	 0.1475561614	-1.8801984171	 1.9709478598	-0.154055
H	 0.8379637299	 1.9770867299	 0.4444950936	 0.128637
H	 0.1374223983	 1.8122450277	-1.1751894235	 0.134726
H	-0.9265186231	 1.9895371088	 0.2289243639	 0.126578
H	-0.8451940121	-0.4614815837	-0.4769558653	 0.094966
H	 2.252156076	-0.0837639936	 2.5097304653	 0.1145
H	 0.74932841	 0.8182073854	 2.8863992113	 0.107965
H	-0.9250533198	-2.1039944585	 2.0165932433	 0.108849
H	 0.7021395602	-2.7887936546	 1.7032143321	 0.115024
103.9019	180.0602	189.0651	225.4805	366.6109	449.6561	458.9925	566.1518	781.2296	838.4166	900.8512	936.2571	974.0732	985.5772	1022.5159	1054.7227	1117.7792	1129.4044	1143.7665	1146.7335	1170.8471	1203.2166	1299.2399	1325.3087	1376.1051	1409.8872	1476.4233	1490.4346	1499.7113	1524.3335	1540.7826	3008.7402	3020.0036	3037.5962	3060.529	3062.0621	3088.7646	3103.6167	3123.4591
CC1OC11COC1	C[C@H]1OC21COC2	
InChI=1S/C5H8O2/c1-4-5(7-4)2-6-3-5/h4H,2-3H2,1H3	InChI=1S/C5H8O2/c1-4-5(7-4)2-6-3-5/h4H,2-3H2,1H3/t4-/m1/s1
