18
gdb 4134	3.38588	1.37688	1.30346	1.029	72.08	-0.2248	-0.0027	0.2222	1041.1251	0.151588	-381.048755	-381.039631	-381.038686	-381.083215	32.537	
C	-0.2373851592	 1.4816588507	-0.1493176599	-0.320309
N	-0.0392804419	 0.0469912727	 0.0204896069	-0.086286
C	 1.3073014681	-0.457940714	-0.2063641861	-0.252376
C	 0.7563010133	-0.4345682204	 1.1767540822	-0.064735
C	 1.2803077585	 0.4806444866	 2.230329535	 0.344603
C	 0.5603325794	 0.5411890002	 3.5519911589	-0.478353
N	 2.3116913498	 1.1890530754	 1.9546000173	-0.165778
O	 2.6529651537	 2.0385401556	 3.0178625512	-0.396357
H	 0.6229937271	 2.0962304998	 0.1505722602	 0.120786
H	-0.4461522649	 1.6722755859	-1.2067506172	 0.122706
H	-1.1117247827	 1.7968086625	 0.4299077969	 0.117867
H	 1.3786592488	-1.4027821884	-0.7393840835	 0.111549
H	 2.0940745972	 0.2600080488	-0.4246498533	 0.127379
H	 0.3505345619	-1.3584556219	 1.5852355433	 0.092223
H	 1.2717954792	 0.468717703	 4.3792638998	 0.149253
H	 0.049169241	 1.5041846809	 3.6637283239	 0.148028
H	-0.18111681	-0.2554624107	 3.6347329883	 0.123076
H	 3.4535579106	 2.4616485032	 2.6899834161	 0.306724
47.6474	52.0939	134.6349	192.1937	229.3122	305.6293	311.0124	376.3314	402.1701	446.5255	493.9482	562.6598	657.5201	743.8265	789.5435	875.3062	952.2868	1010.0016	1027.2579	1043.4692	1066.9222	1100.1786	1129.0331	1136.6945	1170.6601	1214.038	1227.6533	1324.8297	1385.8569	1401.2953	1420.7732	1447.6848	1474.5349	1485.1084	1489.1224	1503.3847	1509.6508	1710.8785	3001.4735	3042.2511	3074.3895	3099.6872	3101.5815	3102.8089	3116.8917	3138.8171	3190.9396	3818.9246
CN1CC1C(C)=NO	CN1C[C@H]1C(=NO)C	
InChI=1S/C5H10N2O/c1-4(6-8)5-3-7(5)2/h5,8H,3H2,1-2H3	InChI=1S/C5H10N2O/c1-4(6-8)5-3-7(5)2/h5,8H,3H2,1-2H3/t5-,7?/m0/s1
