14
gdb 419	4.70272	3.90423	2.33651	2.6766	53.75	-0.2374	-0.0163	0.2211	567.3641	0.118901	-270.447268	-270.440964	-270.44002	-270.477179	22.502	
C	 0.0153464164	 1.6146544985	-0.0197093041	-0.405457
C	 0.062075382	 0.0930878317	-0.006444346	-0.071184
C	 0.6737461836	-0.6983384445	-1.208675827	-0.242092
C	 1.4909765039	-1.589831361	-0.2246916077	-0.333445
C	 1.1183977352	-0.5899204775	 0.8835097437	 0.390968
O	 1.5580172309	-0.3472566617	 1.9700493979	-0.295641
H	 0.9896661853	 2.0350328086	-0.290099102	 0.120442
H	-0.723588704	 1.9833925995	-0.7380994096	 0.119206
H	-0.2491654048	 1.9982757481	 0.9701518844	 0.135954
H	-0.9239323652	-0.3158713547	 0.2518505944	 0.102288
H	-0.0346157181	-1.2154520419	-1.8569745121	 0.107323
H	 1.3190652936	-0.0663190701	-1.8240933539	 0.112383
H	 1.0395468323	-2.5719748122	-0.0494011294	 0.131006
H	 2.5588162289	-1.7279388127	-0.4102872985	 0.12825
89.5655	189.9571	198.3376	330.5118	440.1226	532.5085	669.655	732.5921	740.9447	866.0422	919.5241	931.0027	970.0926	1038.6365	1100.3746	1132.3436	1159.7427	1200.0736	1230.4123	1247.3112	1266.4936	1334.6164	1406.1114	1441.613	1490.3848	1495.2213	1496.4523	1888.6276	3024.3128	3035.624	3057.7612	3072.3742	3103.6168	3112.2517	3113.3156	3132.8182
CC1CCC1=O	C[C@H]1CCC1=O	
InChI=1S/C5H8O/c1-4-2-3-5(4)6/h4H,2-3H2,1H3	InChI=1S/C5H8O/c1-4-2-3-5(4)6/h4H,2-3H2,1H3/t4-/m0/s1
