13
gdb 2981	4.60662	1.97912	1.47201	1.4934	55.76	-0.2633	0.0211	0.2845	791.7484	0.099181	-344.380468	-344.372977	-344.372033	-344.412267	26.277	
O	 0.1701037719	 1.598315217	-0.0419481999	-0.413652
C	 0.0995568236	 0.177821779	 0.0500536525	-0.072257
C	 0.6270683853	-0.4737156476	-1.1499931304	 0.288824
C	 1.1148833641	-0.9734045053	-2.1282878965	-0.444047
C	 0.815033835	-0.313301683	 1.3030149474	 0.083437
C	 0.1099393772	-0.3776705459	 2.5846456093	-0.177128
O	 0.3811462353	-1.5628160274	 1.8281989346	-0.227125
H	 1.0101124146	 1.8230283925	-0.4564486468	 0.290406
H	-0.9635845647	-0.0664124383	 0.1606810116	 0.126231
H	 1.5233260948	-1.4284273167	-2.9969805169	 0.205823
H	 1.8961562928	-0.1660304982	 1.2995212037	 0.097793
H	 0.6683250458	-0.2773549664	 3.5135467658	 0.119954
H	-0.9375026558	-0.0836725996	 2.6347616255	 0.121744
69.0528	139.4626	194.7532	232.621	253.7239	351.7747	447.3592	525.9592	595.0634	643.2156	679.3872	840.5055	874.4776	917.6921	992.2629	1055.9831	1094.1592	1128.444	1157.0803	1170.5733	1247.8681	1289.585	1295.9618	1399.7357	1443.8753	1528.8587	2234.9785	3046.8105	3088.0258	3103.24	3176.9555	3502.4266	3813.582
OC(C#C)C1CO1	O[C@@H](C#C)[C@H]1CO1	
InChI=1S/C5H6O2/c1-2-4(6)5-3-7-5/h1,4-6H,3H2	InChI=1S/C5H6O2/c1-2-4(6)5-3-7-5/h1,4-6H,3H2/t4-,5+/m0/s1
