15
gdb 2248	3.68098	3.10978	2.01821	3.1281	61.82	-0.237	-0.0047	0.2322	673.7932	0.124635	-308.51707	-308.510408	-308.509464	-308.547438	24.921	
C	-0.0520805965	 1.5675571892	 0.0198245667	-0.496352
C	 0.057703477	 0.0701737179	 0.0034514143	 0.227916
C	-0.8315497274	-0.8416845831	 0.8448676082	-0.316798
C	 0.640482282	-0.9627951248	 1.0171553314	-0.091603
C	 1.2051722165	-1.8311602686	-0.1161876251	-0.354192
C	 0.6739757557	-0.7470853439	-1.0942732339	 0.362507
O	 0.8827825739	-0.5238463864	-2.2542581663	-0.316414
H	 0.8799735477	 2.0354235721	-0.3125927803	 0.13209
H	-0.8495070994	 1.9070643995	-0.6498331099	 0.137354
H	-0.2817233929	 1.9359586024	 1.0245704817	 0.120073
H	-1.3721019021	-0.310401777	 1.6224362837	 0.122565
H	-1.3977220814	-1.647877827	 0.3849610464	 0.119515
H	 1.1507348324	-0.7320226277	 1.9430031416	 0.104626
H	 2.2972275656	-1.8698997699	-0.1635912327	 0.130402
H	 0.8056081189	-2.8458780827	-0.2053060457	 0.118312
120.1474	163.9426	242.2924	284.0133	415.9858	467.7269	560.6189	644.3446	671.6607	767.6363	834.7039	874.9486	928.2783	965.9068	981.8001	1015.4105	1037.5895	1079.487	1093.4506	1110.3064	1163.0823	1210.2526	1259.5524	1296.6166	1377.5906	1417.6067	1459.3307	1482.9965	1495.8499	1499.0469	1872.4407	3033.6065	3054.3333	3097.7118	3106.3279	3109.5394	3110.7572	3194.9516	3206.8025
CC12CC1CC2=O	C[C@]12C[C@H]1CC2=O	
InChI=1S/C6H8O/c1-6-3-4(6)2-5(6)7/h4H,2-3H2,1H3	InChI=1S/C6H8O/c1-6-3-4(6)2-5(6)7/h4H,2-3H2,1H3/t4-,6+/m1/s1
