14
gdb 3207	3.58909	3.24991	2.02581	2.0706	57.86	-0.242	-0.0232	0.2189	655.1656	0.1133	-324.547957	-324.54159	-324.540646	-324.578035	23.622	
C	-0.1686894788	 1.6120977602	 0.0006054853	-0.416088
C	 0.0843091894	 0.1160729648	-0.0084241111	-0.060825
N	 0.6926586307	-0.5186828261	-1.2450726523	-0.124676
C	 2.0629795988	-0.0307229779	-1.3285315024	-0.240619
C	 1.7832206482	-1.1515267358	-0.3817670348	-0.15435
C	 1.1653943874	-0.5757702492	 0.8597343438	 0.392498
O	 1.3112722981	-0.7491612132	 2.0347696231	-0.308296
H	 0.735985379	 2.1976719411	-0.1811006626	 0.124364
H	-0.9088920886	 1.8786003647	-0.760261098	 0.135463
H	-0.5629954161	 1.9064238779	 0.9778945821	 0.142631
H	-0.8542504236	-0.417234242	 0.1872203179	 0.121336
H	 2.5653564676	-0.2976292317	-2.2533656271	 0.137743
H	 2.3238327012	 0.9506201312	-0.9424067986	 0.127141
H	 2.1586519366	-2.1570126541	-0.5318712052	 0.123677
161.5453	178.087	211.1168	298.2632	456.5357	505.7759	630.2474	690.3108	727.8468	777.4663	821.2485	908.2466	932.339	1032.6394	1065.9842	1077.4432	1106.1547	1107.8378	1131.1059	1167.3339	1212.2245	1248.8588	1308.1057	1352.5342	1406.3014	1485.9949	1494.2593	1510.1923	1892.6066	3041.7261	3044.683	3113.4862	3115.7641	3123.8164	3190.0392	3205.0148
CC1N2CC2C1=O	C[C@H]1N2C[C@H]2C1=O	
InChI=1S/C5H7NO/c1-3-5(7)4-2-6(3)4/h3-4H,2H2,1H3	InChI=1S/C5H7NO/c1-3-5(7)4-2-6(3)4/h3-4H,2H2,1H3/t3-,4+,6?/m1/s1
