13
gdb 4606	5.7853	1.58451	1.24591	6.7434	64.99	-0.206	-0.0549	0.1511	895.1487	0.098102	-394.835409	-394.828634	-394.82769	-394.866386	25.353	
N	 0.0217409088	 1.4588110066	 0.1513750931	-0.596074
C	-0.0292729195	 0.0571756551	 0.0375784363	 0.202019
C	-1.1756296912	-0.6804708165	 0.017020517	-0.025008
N	-1.0929484329	-2.0407324281	-0.0031220013	-0.336207
C	 0.1073754271	-2.7757092064	-0.0291653773	 0.436377
O	 0.0790529764	-3.9877050121	-0.0606285875	-0.390153
N	 1.2675899952	-2.0060286261	-0.0157005576	-0.312744
C	 1.1798482062	-0.7098360519	 0.0234312033	 0.012279
H	 0.7727951289	 1.8692583905	-0.3893849012	 0.252408
H	-0.8488071822	 1.9139141195	-0.0909960315	 0.246254
H	-2.1714020003	-0.2515548325	 0.0248662041	 0.127329
H	-1.931870556	-2.6023932007	-0.0126850938	 0.268938
H	 2.1249357194	-0.1605343875	 0.0448442964	 0.114583
99.505	160.406	327.6892	334.9969	389.5669	483.9005	491.8573	515.5543	656.3373	674.4818	717.1448	801.6759	806.2619	845.6929	880.1311	995.5704	1004.6606	1077.5214	1147.3094	1209.6715	1311.4628	1393.5115	1445.8337	1475.0355	1574.0546	1655.3984	1713.1391	1807.7671	3093.1275	3193.9433	3534.5099	3619.2951	3624.7701
NC1=CNC(=O)N=C1	Nc1c[nH]c(=O)nc1	
InChI=1S/C4H5N3O/c5-3-1-6-4(8)7-2-3/h1-2H,5H2,(H,6,7,8)	InChI=1S/C4H5N3O/c5-3-1-6-4(8)7-2-3/h1-2H,5H2,(H,6,7,8)
