12
gdb 4515	3.60969	1.90593	1.25591	0.9919	53.16	-0.2007	0.0316	0.2323	874.4932	0.084609	-451.82475	-451.817659	-451.816715	-451.855711	26.673	
N	 0.0517550914	 1.434492631	 0.1164958502	-0.596052
C	-0.056890839	 0.0662538414	 0.014237698	 0.170892
C	-1.0896365113	-0.7979716686	-0.135297801	 0.315134
O	-2.398587956	-0.5054163947	-0.2306899897	-0.423411
N	-0.6501661769	-2.1138260998	-0.1858093522	-0.468203
C	 0.6370128741	-1.9921603901	-0.0642860841	 0.480829
O	 1.541799307	-2.9691585654	-0.0508592504	-0.397314
O	 1.1122950153	-0.7653445074	 0.06072729	-0.199871
H	 0.5576647904	 1.8764098491	-0.6427307907	 0.246714
H	 0.4131336131	 1.7648018117	 1.00416563	 0.246715
H	-2.8614604196	-1.345759357	-0.3283491852	 0.304297
H	 1.0568094515	-3.7985861101	-0.1497432847	 0.320269
195.6874	235.0027	273.6921	283.7342	331.0201	349.7094	409.5673	445.4018	570.7119	642.3628	656.2305	685.0919	707.8007	759.6783	836.5129	1001.5437	1072.1888	1161.4932	1210.4042	1217.1335	1364.7453	1419.8906	1517.2397	1640.1395	1666.3488	1792.3999	3503.1002	3570.5187	3805.2773	3814.6455
NC1=C(O)N=C(O)O1	Nc1c(O)nc(O)o1	
InChI=1S/C3H4N2O3/c4-1-2(6)5-3(7)8-1/h6H,4H2,(H,5,7)	InChI=1S/C3H4N2O3/c4-1-2(6)5-3(7)8-1/h6H,4H2,(H,5,7)
