14
gdb 4898	6.63028	1.2533	1.06931	2.5981	61.13	-0.1953	0.0258	0.2211	1035.3049	0.107552	-415.871053	-415.863378	-415.862433	-415.90335	27.641	
O	 0.148383094	 1.3686548672	 0.0410875459	-0.398081
C	 0.0167362115	-0.0101310313	-0.2341196734	-0.170104
C	-1.4021651171	-0.4703046006	-0.1234916156	 0.262515
C	-2.5374666634	 0.2363492374	-0.0529532755	-0.129786
O	-3.6232505143	-0.6212180653	 0.0518183615	-0.214399
C	-3.1497990261	-1.918652717	 0.0457006952	 0.470536
N	-3.8192174559	-2.9904709915	 0.1286852086	-0.607656
N	-1.7773672524	-1.8129372165	-0.0670748048	-0.400384
H	-0.161799149	 1.5142660404	 0.9417869895	 0.288596
H	 0.3908501472	-0.1496593651	-1.2558400857	 0.139599
H	 0.6553410605	-0.62771964	 0.4207237694	 0.103877
H	-2.7444124149	 1.2901024528	-0.0836874215	 0.155653
H	-4.8125212748	-2.7898573382	 0.2039809586	 0.225633
H	-1.1766698253	-2.6172743223	-0.0609835223	 0.274001
71.6216	125.8283	173.8223	225.7839	322.1086	373.2306	391.2711	499.0204	593.9629	693.0042	706.4993	713.2811	753.7572	755.745	920.7396	990.8792	1019.2403	1062.0136	1082.5523	1103.2836	1208.9939	1218.7299	1233.1271	1350.2684	1378.6018	1409.1099	1454.954	1502.2325	1711.6451	1793.5359	2957.6011	3047.5124	3314.0913	3545.3715	3702.8008	3803.6049
OCC1=COC(=N)N1	OCC1=CO[C@H]([NH])N1	
InChI=1S/C4H6N2O2/c5-4-6-3(1-7)2-8-4/h2,7H,1H2,(H2,5,6)	InChI=1S/C4H7N2O2/c5-4-6-3(1-7)2-8-4/h2,4-7H,1H2/t4-/m1/s1
