17
gdb 2579	2.99162	2.69303	1.76658	2.1303	60.25	-0.252	0.08	0.3321	776.0873	0.146925	-346.821929	-346.813955	-346.813011	-346.853955	28.922	
C	 1.1714594126	-0.6924504629	-1.1221968177	-0.25239
O	 0.3114072584	-0.2376703878	-0.0895898434	-0.291067
C	 0.6229186061	-0.7233458157	 1.1957125287	 0.401136
C	 1.7981957618	-0.0050589751	 1.8216343743	-0.108645
O	 1.586913047	 1.3943453622	 1.8479162314	-0.424077
C	-0.5707731275	-1.073439511	 2.0268022358	-0.304943
C	 0.3389828753	-2.1692288507	 1.5033708436	-0.330385
H	 1.180542484	-1.7886366248	-1.1839911932	 0.112861
H	 0.7803617673	-0.285242821	-2.0574291646	 0.129831
H	 2.2043526815	-0.3431381101	-0.9913989472	 0.115247
H	 1.9315597926	-0.339214943	 2.8558118968	 0.103071
H	 2.7267691807	-0.2538974059	 1.2802360214	 0.082477
H	 1.1601539983	 1.611270254	 1.0100425751	 0.286921
H	-0.5477299383	-0.8322389041	 3.0835591774	 0.120218
H	-1.5392821063	-0.9681958144	 1.5522970113	 0.124356
H	-0.0433454048	-2.7843168427	 0.6963773437	 0.119451
H	 0.9881821014	-2.690302707	 2.1992705465	 0.115937
83.1069	124.4765	186.7829	225.7226	265.3574	334.7757	361.0026	406.3698	460.1544	579.7352	724.9986	775.6251	884.8988	912.9169	926.7335	986.4085	1049.7715	1053.9378	1077.0159	1079.8131	1098.5066	1183.1305	1187.3297	1196.8058	1223.2762	1295.5347	1342.3216	1359.831	1442.0313	1454.2638	1475.8939	1488.4032	1499.3785	1510.4424	1516.5265	2957.6034	3003.4162	3057.963	3070.4394	3120.2635	3132.6732	3142.297	3216.5995	3234.8203	3783.3805
COC1(CO)CC1	COC1(CO)CC1	
InChI=1S/C5H10O2/c1-7-5(4-6)2-3-5/h6H,2-4H2,1H3	InChI=1S/C5H10O2/c1-7-5(4-6)2-3-5/h6H,2-4H2,1H3
