11
gdb 923	6.00403	2.80433	1.91151	2.1772	54.42	-0.2462	-0.0495	0.1966	604.0391	0.082053	-339.50409	-339.49897	-339.498026	-339.532954	19.155	
O	-0.0500806692	-0.0834816295	 0.0037026477	-0.38161
C	 0.0233113082	 1.1289312515	 0.0090082697	 0.417947
N	-1.1550526718	 1.9187690927	 0.0286234041	-0.328488
C	-1.1622915369	 3.2730104135	 0.0355577796	 0.12044
N	-0.0955735887	 4.0094093337	 0.0250830677	-0.280154
C	 1.0941037843	 3.3191998736	 0.0057317347	 0.017389
C	 1.2066475288	 1.9645833828	-0.0026206046	-0.224105
H	-2.0233343264	 1.3988872108	 0.0375338822	 0.269863
H	-2.1428434029	 3.7431205684	 0.0509742945	 0.140943
H	 1.9831199173	 3.9438583178	-0.0029853214	 0.124512
H	 2.1680212973	 1.4672737248	-0.0179949742	 0.123264
175.6381	364.2568	455.4814	511.6292	538.6986	659.9126	737.5688	778.6238	830.0405	865.8725	963.5148	991.6575	1020.3147	1037.1072	1132.4882	1209.9222	1250.2472	1398.3378	1443.3697	1461.4259	1578.3003	1654.1276	1809.0144	3165.1255	3170.9779	3223.0618	3590.2574
O=C1NC=NC=C1	O=c1[nH]cncc1	
InChI=1S/C4H4N2O/c7-4-1-2-5-3-6-4/h1-3H,(H,5,6,7)	InChI=1S/C4H4N2O/c7-4-1-2-5-3-6-4/h1-3H,(H,5,6,7)
