10
gdb 912	6.05207	2.8452	1.93535	4.7817	49.87	-0.2557	-0.0481	0.2076	587.4329	0.068731	-359.354596	-359.349462	-359.348518	-359.383694	18.555	
O	 0.0237603325	-0.0489005443	 0.0023261228	-0.331939
C	-0.0181456723	 1.1588849033	 0.0097274057	 0.386972
C	-1.2614962712	 1.9395244132	 0.0306265375	-0.249696
C	-1.2119178365	 3.2763286366	 0.0370885425	 0.080832
O	-0.0362343765	 3.9585683719	 0.0248921114	-0.176294
C	 1.0938678603	 3.2016092403	 0.0056868873	 0.136864
N	 1.1784957628	 1.9365870889	-0.0022505319	-0.294733
H	-2.210180342	 1.4188046221	 0.0405994997	 0.136311
H	-2.0613043941	 3.9475971984	 0.0520949283	 0.155638
H	 1.969660247	 3.8450359296	-0.0027367034	 0.156046
116.003	399.13	458.9665	472.1267	542.6471	660.0119	779.3424	815.0576	866.0499	930.6171	975.0711	979.3831	1006.5413	1061.6634	1203.7805	1305.1556	1403.4763	1420.6384	1622.8092	1711.6988	1805.7412	3183.1213	3215.6105	3234.8457
O=C1C=COC=N1	O=c1ccocn1	
InChI=1S/C4H3NO2/c6-4-1-2-7-3-5-4/h1-3H	InChI=1S/C4H3NO2/c6-4-1-2-7-3-5-4/h1-3H
