14
gdb 2422	4.44562	3.39205	2.48428	1.4736	56.94	-0.2351	0.0602	0.2954	581.4334	0.113398	-324.460752	-324.455096	-324.454152	-324.489828	22.282	
C	 0.0094173107	 1.4766360615	-0.0600565629	-0.53266
C	 0.0146685558	-0.0192923963	-0.0570201601	 0.309564
N	 0.604091798	-0.8784441671	-1.1428180768	-0.377163
C	 0.0828682368	-1.8851130186	-0.1625069901	-0.073817
C	 0.5039047436	-1.0112505885	 1.0502596601	 0.070291
O	-0.7858443158	-1.0897838408	 1.7229358239	-0.329479
C	-1.135471432	-1.0300110691	 0.3099367854	 0.039221
H	 1.0262439503	 1.8668901178	-0.1656518899	 0.136453
H	-0.594636732	 1.8706090059	-0.8845290425	 0.12341
H	-0.4129277929	 1.8445510185	 0.880331162	 0.140337
H	 0.0067624813	-0.854731255	-1.9738384859	 0.207436
H	 0.1653209254	-2.9637440591	-0.2939004652	 0.091599
H	 1.4167374739	-1.0148430631	 1.644119808	 0.102532
H	-2.1888074732	-1.0565765061	 0.0240965941	 0.092276
223.5565	239.518	291.7548	481.0136	530.2501	675.5756	742.0713	768.3932	806.7606	815.5629	852.9033	879.3121	930.4434	951.1141	998.4332	1087.0626	1093.7612	1107.5526	1124.7704	1164.9288	1175.2561	1201.0756	1264.2641	1277.263	1314.7215	1375.7535	1413.6565	1482.3819	1490.6714	3034.3296	3101.1794	3101.9737	3115.0639	3123.9123	3140.1495	3399.4204
CC12NC3C1OC23	C[C@@]12N[C@H]3[C@@H]1O[C@@H]23	
InChI=1S/C5H7NO/c1-5-3-2(6-5)4(5)7-3/h2-4,6H,1H3	InChI=1S/C5H7NO/c1-5-3-2(6-5)4(5)7-3/h2-4,6H,1H3/t2-,3-,4+,5+
