15
gdb 2412	5.02232	2.34859	1.96436	1.7702	57.27	-0.2388	0.0633	0.3021	690.9659	0.124389	-345.578846	-345.572337	-345.571393	-345.608816	24.99	
C	-0.0686415804	 1.5790764794	 0.0148053569	-0.433841
C	-0.0288613325	 0.0632618663	-0.0058134812	 0.037984
C	 1.204450894	-0.6514799018	-0.6259653436	-0.013284
O	 2.0274736201	-0.221905785	 0.525116704	-0.312259
C	 0.7500603587	-0.686573481	 1.1147327787	 0.011688
C	 0.8693337999	-1.9304471415	 0.208835071	 0.125953
O	-0.2941472528	-2.6739719623	-0.015282983	-0.426645
H	 0.9081067997	 1.9872268353	 0.2832664482	 0.135628
H	-0.3536304007	 1.9740304648	-0.966435593	 0.113716
H	-0.8080282566	 1.9388990621	 0.7384858614	 0.115197
H	-0.9881237571	-0.3904506178	-0.2645789074	 0.090644
H	 1.64485232	-0.552963381	-1.6198071869	 0.085893
H	 0.6458876003	-0.6278756077	 2.1989302631	 0.09158
H	 1.7507178802	-2.5425107231	 0.4268876	 0.085891
H	-0.0948292626	-3.3637181266	-0.6556193381	 0.291855
215.841	218.0262	257.3867	278.5651	349.7437	378.1984	597.3792	652.1052	756.7901	787.2743	799.4535	882.7951	897.3774	904.185	1020.755	1061.8199	1084.9348	1115.3816	1131.7601	1147.2099	1158.8787	1196.3571	1215.2409	1250.0468	1265.3793	1300.3042	1390.5859	1406.9392	1424.6125	1492.6957	1504.9593	3035.5327	3061.4484	3092.1973	3092.2306	3102.9574	3115.1995	3131.7171	3826.3786
CC1C2OC1C2O	C[C@H]1[C@H]2O[C@@H]1[C@H]2O	
InChI=1S/C5H8O2/c1-2-4-3(6)5(2)7-4/h2-6H,1H3	InChI=1S/C5H8O2/c1-2-4-3(6)5(2)7-4/h2-6H,1H3/t2-,3-,4+,5-
