13
gdb 3126	6.38359	2.15812	1.87549	3.8186	55.65	-0.258	-0.0428	0.2152	677.1994	0.100675	-344.418857	-344.412632	-344.411687	-344.449038	22.479	
O	 0.0163238982	 0.0865334176	-0.6010836193	-0.252102
C	 0.1486611445	 1.0007385731	 0.1723956108	 0.055325
C	 1.2739581569	 1.9625596862	 0.1624519027	 0.320912
C	 1.6425332089	 3.0521742878	 1.1845499374	-0.3023
C	 2.1271902773	 3.9546884736	-0.0024194571	-0.237878
C	 1.7429266466	 2.8253194404	-0.9666030475	-0.008694
O	 2.4499784837	 1.6604938212	-0.5901351156	-0.253691
H	-0.6034526125	 1.211874921	 0.9663579108	 0.07524
H	 0.7713676471	 3.4683302129	 1.696075083	 0.117459
H	 2.3925902224	 2.7542582195	 1.9197476195	 0.121626
H	 1.517186814	 4.8520380735	-0.124336182	 0.116527
H	 3.1850829939	 4.2254164116	-0.0188925774	 0.12311
H	 1.3717658489	 2.8754803817	-1.9843524553	 0.124466
102.2326	199.8094	219.483	334.077	425.962	529.3765	745.1341	757.2423	780.3909	845.0933	910.2011	928.5066	949.1987	1005.772	1039.3514	1071.3236	1121.447	1168.7703	1215.3083	1228.8528	1267.6655	1274.2368	1405.9799	1431.4091	1464.1071	1484.3025	1817.5291	2873.0523	3069.7032	3076.8691	3122.8131	3138.4002	3187.6263
O=CC12CCC1O2	O=C[C@]12CC[C@H]1O2	
InChI=1S/C5H6O2/c6-3-5-2-1-4(5)7-5/h3-4H,1-2H2	InChI=1S/C5H6O2/c6-3-5-2-1-4(5)7-5/h3-4H,1-2H2/t4-,5-/m1/s1
