17
gdb 475	3.88714	3.62397	2.64105	1.3293	60.42	-0.2104	0.0826	0.293	607.6457	0.153308	-251.727102	-251.719552	-251.718607	-251.758017	26.797	
C	-0.0856357419	 1.5349054211	 0.6262376116	-0.412938
C	 0.0567740883	 0.0716163219	 0.2631206692	 0.006275
C	 0.4216244259	-0.407359392	-1.109256995	 0.006272
C	 0.6856973524	 0.5222727604	-2.2751857867	-0.412935
N	 1.3455038636	-0.5825226695	 0.0157571168	-0.102373
C	 2.5862445189	 0.1733297895	 0.0817747379	-0.310167
H	 0.5243804218	 2.1997397912	 0.0124927102	 0.118462
H	-1.1298339234	 1.845316495	 0.5108157085	 0.121032
H	 0.1911820403	 1.7016199427	 1.6733958673	 0.122184
H	-0.6206684913	-0.5626695046	 0.8366457708	 0.082403
H	-0.0184657728	-1.353215031	-1.4284049323	 0.082402
H	 1.0538251181	 1.5052496252	-1.9767800076	 0.118461
H	 1.4220792898	 0.0847543086	-2.9587638889	 0.122182
H	-0.2380189184	 0.6748571903	-2.8439541146	 0.121032
H	 2.5460370228	 1.207280534	-0.2894047356	 0.096163
H	 2.9212594287	 0.2067950346	 1.1238838865	 0.120773
H	 3.3512149472	-0.3575589773	-0.4946993283	 0.120774
128.4098	141.1657	146.6563	233.6409	241.5382	303.0632	428.1847	506.2699	532.3605	714.6767	757.0313	819.951	956.8705	1017.0683	1041.3606	1056.5692	1113.7498	1137.962	1170.3121	1174.5583	1189.6701	1205.3688	1353.9533	1380.7883	1413.2269	1413.266	1430.1308	1462.622	1482.751	1488.3407	1489.4416	1506.1954	1506.6096	1515.6132	2994.453	3034.3299	3037.8837	3063.0687	3078.941	3088.6456	3090.0161	3090.3651	3093.9356	3125.5889	3137.612
CC1C(C)N1C	C[C@H]1[C@@H](C)N1C	
InChI=1S/C5H11N/c1-4-5(2)6(4)3/h4-5H,1-3H3	InChI=1S/C5H11N/c1-4-5(2)6(4)3/h4-5H,1-3H3/t4-,5+,6?
