10
gdb 700	9.10592	4.2604	4.2604	0.	41.73	-0.2495	0.0447	0.2942	367.7712	0.072528	-305.036659	-305.032628	-305.031683	-305.063763	15.634	
O	-0.1057644292	 1.5372260737	 0.0094520019	-0.319285
C	 1.3271171661	 1.292839212	-0.0041972783	 0.049455
C	 1.2470662673	 0.0193111974	 0.8986163914	 0.049455
O	 1.9929572838	-0.8240468392	-0.0208647303	-0.319285
C	 1.2313550654	 0.0286755631	-0.9185675359	 0.049456
C	-0.0311474277	 0.0855371381	 0.0013243945	 0.049456
H	 2.0155382172	 2.1371826571	-0.0057710599	 0.110187
H	 1.3717564376	-0.1160971877	 1.9723757634	 0.110187
H	 1.3374880808	-0.0956087761	-1.9956617143	 0.110187
H	-0.9503882412	-0.4991123783	 0.0062299574	 0.110186
527.9609	527.9611	748.385	764.4798	776.8543	776.8546	840.5076	879.205	879.2051	974.876	982.7196	1066.453	1092.3975	1150.0446	1150.0447	1174.1763	1180.728	1180.7281	1276.9518	1348.9705	3123.1352	3131.7377	3131.7383	3150.1651
O1C2C3OC2C13	O1[C@H]2[C@@H]3O[C@H]2[C@H]13	
InChI=1S/C4H4O2/c5-1-2-4(5)3(1)6-2/h1-4H	InChI=1S/C4H4O2/c5-1-2-4(5)3(1)6-2/h1-4H/t1-,2-,3+,4+
