13
gdb 2598	3.22244	2.72298	1.74996	1.7858	55.96	-0.2646	0.0189	0.2835	721.438	0.09946	-344.38463	-344.377342	-344.376397	-344.416008	26.206	
O	 0.1530714057	 1.3001884251	 0.3201162826	-0.406902
C	 0.0232109188	 0.0098823979	-0.2347589503	-0.123479
C	-1.4036270764	-0.503866335	-0.1335622025	 0.144218
C	-1.6506364575	-1.9044551894	 0.2647782295	-0.202495
O	-1.7708850391	-0.858640193	 1.222421085	-0.267222
C	-2.4055114822	 0.2155192668	-0.8814532349	 0.324124
C	-3.2159079509	 0.816870014	-1.533465689	-0.429525
H	-0.1530790564	 1.2462571268	 1.2328621834	 0.295833
H	 0.3205428525	 0.0893677738	-1.2848288076	 0.122165
H	 0.6853788283	-0.7174809877	 0.2588018183	 0.09331
H	-2.584142007	-2.3775062996	-0.0325799954	 0.128344
H	-0.8025643375	-2.5749462222	 0.3998320395	 0.118967
H	-3.9363760981	 1.3543289725	-2.0993810487	 0.202662
75.1476	151.6611	199.6104	260.0424	348.3761	420.8277	439.4349	547.6894	586.7958	627.1936	665.9836	711.2304	828.3259	905.6587	968.3896	987.7834	1086.8174	1130.9765	1170.9439	1201.9282	1272.8635	1340.4843	1403.7345	1426.2006	1488.4382	1519.3949	2242.394	2992.0398	3086.2113	3089.2221	3180.829	3502.0041	3799.1584
OCC1(CO1)C#C	OC[C@]1(CO1)C#C	
InChI=1S/C5H6O2/c1-2-5(3-6)4-7-5/h1,6H,3-4H2	InChI=1S/C5H6O2/c1-2-5(3-6)4-7-5/h1,6H,3-4H2/t5-/m0/s1
