12
gdb 3708	7.566	2.16842	1.70487	2.6757	52.25	-0.241	0.0111	0.2521	696.961	0.091162	-356.714706	-356.708346	-356.707402	-356.744664	23.105	
C	-0.0097297894	 1.4698631773	 0.0295671816	-0.485687
C	 0.0060719063	-0.0193234754	-0.0002459743	 0.37278
N	-0.0897195306	-0.6846775952	-1.1210432265	-0.19177
O	-0.0316481968	-2.0417502218	-0.6912007006	-0.210495
C	 0.0917648659	-1.9932467948	 0.6374073709	 0.495336
N	 0.2219297446	-3.1699244105	 1.3017743585	-0.592198
N	 0.118090799	-0.7880457808	 1.136978762	-0.383643
H	 0.9153377094	 1.8485640174	 0.4745884326	 0.146603
H	-0.1132858339	 1.8690166141	-0.9803381574	 0.14762
H	-0.8397869247	 1.8270352164	 0.646500355	 0.145228
H	-0.1200585461	-3.9946697848	 0.8352022004	 0.276102
H	 0.0540244862	-3.1230809619	 2.2937773479	 0.280123
143.5603	201.3487	283.5107	358.0768	376.083	452.7607	474.1306	637.5341	671.5615	769.7451	787.7784	895.3528	997.5555	1028.9259	1056.2744	1070.1266	1126.3998	1358.0561	1408.1357	1453.8394	1473.5617	1475.3312	1584.9905	1613.2952	1686.0729	3051.1026	3110.8293	3150.5063	3601.7778	3717.2787
CC1=NOC(N)=N1	Cc1noc(N)n1	
InChI=1S/C3H5N3O/c1-2-5-3(4)7-6-2/h1H3,(H2,4,5,6)	InChI=1S/C3H5N3O/c1-2-5-3(4)7-6-2/h1H3,(H2,4,5,6)
