15
gdb 2839	3.54962	2.20615	1.5475	1.4799	63.58	-0.2406	0.0494	0.29	804.497	0.123457	-308.462933	-308.455235	-308.454291	-308.494779	27.877	
O	 0.2513135876	 0.744437221	 0.8441944452	-0.421594
C	-0.0876131058	 0.184353009	-0.415836633	-0.094796
C	-1.4371588828	-0.4670264536	-0.2832315319	 0.012778
C	-1.8880456237	-1.497437124	-1.2739512348	-0.307183
C	-1.5698846512	-1.9216990741	 0.153963416	-0.174717
C	-0.4145588502	-2.7271544671	 0.4201437466	 0.341909
C	 0.546424011	-3.4156867646	 0.6449788807	-0.479724
H	 1.1330688665	 1.1217692187	 0.7758279344	 0.286816
H	-0.1361872099	 0.9623093556	-1.1957165918	 0.085419
H	 0.6511700392	-0.564585348	-0.7369592287	 0.097432
H	-2.2001725382	 0.1952617029	 0.115065065	 0.100841
H	-2.9264683237	-1.5075859653	-1.5848317095	 0.119734
H	-1.1844138714	-1.8092730497	-2.0380975036	 0.125831
H	-2.4260420356	-2.1391231921	 0.7855885043	 0.11369
H	 1.3937397182	-4.0214712785	 0.8495457609	 0.193567
71.5662	153.2358	187.6679	215.9889	253.8603	355.267	443.2316	532.3167	574.3426	595.3516	648.6547	771.769	793.6113	853.2184	941.9767	1004.8806	1015.7256	1067.4163	1082.5956	1119.0681	1126.9394	1166.814	1215.1404	1259.8075	1280.5592	1368.2062	1396.4628	1474.0212	1490.9064	1513.7352	2234.661	2963.7881	3010.7581	3137.4799	3147.6967	3159.3432	3226.2544	3505.6837	3831.4488
OCC1CC1C#C	OC[C@H]1C[C@H]1C#C	
InChI=1S/C6H8O/c1-2-5-3-6(5)4-7/h1,5-7H,3-4H2	InChI=1S/C6H8O/c1-2-5-3-6(5)4-7/h1,5-7H,3-4H2/t5-,6-/m1/s1
