14
gdb 3759	3.85029	3.48461	1.87219	3.3698	58.72	-0.2498	0.0128	0.2626	668.8616	0.115018	-320.79358	-320.786635	-320.785691	-320.825637	23.487	
C	-0.0301863484	 1.4250231901	-0.0435132925	-0.325381
N	-0.0259022082	-0.0203716715	 0.0218714859	 0.004737
N	-0.1560653068	-0.7512338917	-1.1162040502	-0.258535
C	-0.1408289001	-1.9892288916	-0.654755557	 0.024721
N	-0.0127418038	-2.1048121593	 0.6934892706	-0.31433
C	 0.0552253352	-0.8435516397	 1.0953206597	 0.357472
C	 0.2001494265	-0.388259966	 2.5088437166	-0.503403
H	 0.3158438724	 1.8310898134	 0.9079347657	 0.14255
H	 0.6394698266	 1.751972447	-0.8411924057	 0.159277
H	-1.0364251309	 1.8025919922	-0.2499594641	 0.149745
H	-0.2215854495	-2.8399037437	-1.3152102967	 0.12199
H	 1.1091777171	 0.2051175596	 2.6563365423	 0.139141
H	-0.6510062305	 0.2207341953	 2.832020083	 0.139353
H	 0.2566787404	-1.2693569941	 3.1485724924	 0.162664
25.3492	116.0791	198.7775	272.9793	277.2761	430.4544	661.0485	671.8807	705.8075	740.4901	906.956	981.6184	1007.3556	1034.7344	1065.6016	1150.9338	1200.2997	1220.4642	1307.0617	1314.9652	1406.0403	1426.4727	1456.2326	1477.0397	1480.0445	1488.7918	1500.2051	1532.9661	1567.9546	3037.3032	3050.5088	3089.8588	3121.5436	3151.6025	3154.0452	3256.2041
CN1N=CN=C1C	Cn1ncnc1C	
InChI=1S/C4H7N3/c1-4-5-3-6-7(4)2/h3H,1-2H3	InChI=1S/C4H7N3/c1-4-5-3-6-7(4)2/h3H,1-2H3
