13
gdb 4267	4.11575	1.98519	1.35044	4.5195	63.85	-0.2571	-0.0395	0.2176	854.8647	0.0967	-394.817573	-394.810756	-394.809812	-394.849035	24.487	
C	 0.0377993448	 1.4854026731	-0.0378122548	-0.471851
C	-0.075645737	 0.000070121	 0.0176506538	 0.402945
N	-1.1335147496	-0.6471204323	-0.242007184	-0.280482
C	-1.1094897896	-2.0546622913	-0.1529954613	 0.362476
N	-2.1673612171	-2.7082579826	-0.4125626564	-0.488742
N	 0.1070524382	-2.687549768	 0.227141621	-0.288589
C	 1.100993414	-1.9421620706	 0.4622948713	 0.121868
O	 1.1255968874	-0.5821290752	 0.3891439637	-0.214478
H	 0.8107721645	 1.7780923696	-0.7557712448	 0.154697
H	-0.9214338642	 1.9089808056	-0.3307532621	 0.16665
H	 0.3369718807	 1.8776328674	 0.9395387095	 0.154631
H	-1.966692073	-3.7031612071	-0.2974959759	 0.228388
H	 2.0709350409	-2.3319281897	 0.75918022	 0.152488
75.5392	135.6084	197.3359	314.8104	425.0404	503.1766	542.1956	584.4964	592.0919	774.9734	801.0286	871.4117	920.5144	924.7349	973.6702	999.1421	1064.4254	1097.2571	1154.6073	1227.7796	1353.6371	1407.617	1409.4402	1468.9499	1473.1716	1663.9207	1719.7988	1773.121	3049.9158	3108.2205	3175.5177	3183.4474	3480.0145
CC1=NC(=N)N=CO1	CC1=N[C@H]([NH])N=CO1	
InChI=1S/C4H5N3O/c1-3-7-4(5)6-2-8-3/h2,5H,1H3	InChI=1S/C4H6N3O/c1-3-7-4(5)6-2-8-3/h2,4-5H,1H3/t4-/m1/s1
