16
gdb 2766	4.68936	2.03885	1.53341	4.2351	62.93	-0.2389	0.0262	0.2652	810.2092	0.136931	-325.793131	-325.78578	-325.784836	-325.825029	25.765	
C	-0.3420623931	 1.4624476609	 0.0963421461	-0.396625
C	 0.0502889613	-0.0024422006	-0.0309513074	 0.059533
C	 0.917185258	-0.4077796434	-1.2638329381	-0.260914
C	 2.0068604981	-0.9159654496	-0.2774069355	-0.160696
N	 1.1696158482	-0.4402580624	 0.8252291047	-0.041615
C	 1.2512239599	-0.7391821066	 2.14042739	 0.124824
O	 2.185489732	-1.3161539106	 2.6601487112	-0.331839
H	 0.5307889307	 2.1107746481	-0.0283410619	 0.124381
H	-1.0812371035	 1.7223835532	-0.6690464064	 0.123086
H	-0.7854909348	 1.6711527197	 1.0751222994	 0.12651
H	-0.8353528994	-0.6390440255	 0.0931437152	 0.088809
H	 0.479376404	-1.1708707158	-1.9074724344	 0.117089
H	 1.2261801871	 0.4417338928	-1.875470996	 0.114782
H	 2.1607727049	-1.9997638341	-0.2608215875	 0.125426
H	 2.9831988154	-0.4260990945	-0.3380249339	 0.123765
H	 0.3630114212	-0.3836288018	 2.7039183046	 0.063484
64.3338	104.5103	184.9405	252.3366	306.7828	322.4859	422.3534	559.5228	715.8656	790.4882	859.9883	887.7708	942.7731	954.5314	1032.8666	1044.2625	1105.0373	1150.6562	1176.6104	1181.9474	1222.1641	1265.9684	1282.4534	1323.3001	1376.6912	1393.8211	1408.9943	1439.6622	1488.518	1490.1668	1497.8969	1523.6261	1789.1941	2912.1668	3015.5994	3033.912	3046.3857	3084.946	3088.7704	3105.6019	3112.8237	3142.9626
CC1CCN1C=O	C[C@H]1CCN1C=O	
InChI=1S/C5H9NO/c1-5-2-3-6(5)4-7/h4-5H,2-3H2,1H3	InChI=1S/C5H9NO/c1-5-2-3-6(5)4-7/h4-5H,2-3H2,1H3/t5-/m0/s1
