11
gdb 4333	4.11396	2.06274	1.37388	3.0562	54.46	-0.2708	-0.0559	0.2149	793.4682	0.075559	-430.80226	-430.796394	-430.795449	-430.832457	21.818	
O	-0.0656201696	 1.2901210897	 0.0098307435	-0.367584
C	 0.0040515656	-0.0381076775	 0.0024097469	 0.455153
N	 1.1874321598	-0.593408383	-0.0070650766	-0.413939
C	 1.2700449468	-1.9636631852	-0.0148582869	 0.444231
O	 2.275883607	-2.6291465451	-0.0238578299	-0.370005
N	-0.0044428544	-2.6196286782	-0.0113198147	-0.323462
C	-1.1588473173	-1.9356864743	-0.0013347038	 0.126166
N	-1.2260651646	-0.6382039048	 0.005945726	-0.300925
H	 0.8493845587	 1.6093103111	 0.0064954325	 0.31588
H	 0.0158167759	-3.6298975455	-0.0167952683	 0.28001
H	-2.0774978378	-2.5184746872	 0.0006161012	 0.154475
144.8098	194.1921	394.2611	428.8074	555.6237	564.5374	592.7022	638.5321	690.6959	786.3148	794.5429	823.2542	958.5895	985.9835	1002.8337	1159.3557	1197.8495	1276.7243	1387.7441	1459.7054	1492.894	1577.7188	1676.7391	1845.4059	3166.199	3612.9065	3757.4691
OC1=NC(=O)NC=N1	Oc1nc(=O)[nH]cn1	
InChI=1S/C3H3N3O2/c7-2-4-1-5-3(8)6-2/h1H,(H2,4,5,6,7,8)	InChI=1S/C3H3N3O2/c7-2-4-1-5-3(8)6-2/h1H,(H2,4,5,6,7,8)
