12
gdb 3788	7.96841	2.14392	1.71102	3.4272	52.47	-0.2335	0.0076	0.2411	691.0178	0.091696	-356.696744	-356.690383	-356.689439	-356.727281	21.796	
C	-0.0645099563	 1.4498506229	-0.0559252981	-0.332671
N	 0.0924849086	 0.0065481974	-0.0027716468	-0.385341
C	 0.6086665812	-0.7103845739	-1.0199563319	 0.548582
N	 0.6124358066	-2.0166564465	-1.1497809724	-0.37653
C	 1.2969123786	-2.1567141191	-2.3244341821	 0.054085
N	 1.6958432206	-1.0608317297	-2.9080511183	-0.142696
O	 1.2199481786	-0.0557949405	-2.0135204039	-0.21682
H	 0.8698733265	 1.9097520175	-0.3843723656	 0.162865
H	-0.8635895835	 1.764979507	-0.7392534925	 0.138025
H	-0.2943338904	 1.8129247533	 0.9473279269	 0.139116
H	-0.4851642305	-0.5243519034	 0.6280950061	 0.271181
H	 1.5088017398	-3.119344275	-2.7691144713	 0.140203
100.2858	118.5836	215.8717	297.7385	428.6904	525.0827	631.201	716.788	772.7686	879.5607	939.4902	976.022	1000.1512	1088.5211	1153.0286	1170.2801	1221.8249	1281.2284	1372.687	1439.9161	1474.0481	1489.9547	1516.2659	1578.5182	1684.7486	3022.1889	3104.7169	3144.4363	3249.2057	3656.0034
CNC1=NC=NO1	CNc1ncno1	
InChI=1S/C3H5N3O/c1-4-3-5-2-6-7-3/h2H,1H3,(H,4,5,6)	InChI=1S/C3H5N3O/c1-4-3-5-2-6-7-3/h2H,1H3,(H,4,5,6)
