13
gdb 600	6.43371	2.81399	2.21821	1.6946	56.27	-0.2454	0.0378	0.2832	588.8624	0.107167	-249.294409	-249.287993	-249.287049	-249.324064	23.34	
C	-0.0928404982	 1.523394184	-0.0926998412	-0.396306
C	-0.0135813492	 0.0253304607	 0.0506549526	 0.018314
N	 1.2929917919	-0.5967108963	-0.1811974508	-0.322678
C	 0.7101449251	-0.6390017397	 1.1844186562	-0.239969
C	 1.3787718174	 0.1011783974	 2.2188477626	 0.385132
C	 1.910507618	 0.708786714	 3.1098778211	-0.45365
H	 0.8011709604	 1.9952572272	 0.3199614032	 0.141627
H	-0.1750293351	 1.8028668895	-1.1482230494	 0.120454
H	-0.9687186747	 1.9165675298	 0.4339459933	 0.118814
H	-0.8894060057	-0.5180569636	-0.3032201194	 0.087597
H	 1.1871246768	-1.509589244	-0.6164364606	 0.235022
H	 0.2987414415	-1.5907672198	 1.5147694133	 0.107817
H	 2.3911683018	 1.2463083709	 3.8893215993	 0.197826
141.4547	173.0439	223.6529	335.2285	395.4318	547.539	580.4726	609.9043	656.7649	770.4525	810.9247	888.3249	954.5822	995.4908	1025.1333	1086.2467	1146.0384	1198.6843	1247.0753	1255.7819	1390.5485	1419.1723	1452.2191	1486.9767	1495.4777	2239.3341	3039.4288	3101.9381	3104.9742	3123.7273	3138.3913	3502.2319	3504.2854
CC1NC1C#C	C[C@H]1N[C@H]1C#C	
InChI=1S/C5H7N/c1-3-5-4(2)6-5/h1,4-6H,2H3	InChI=1S/C5H7N/c1-3-5-4(2)6-5/h1,4-6H,2H3/t4-,5+/m1/s1
