17
gdb 4461	3.59985	1.67777	1.16224	1.2195	73.17	-0.1645	0.0573	0.2218	1020.8803	0.143051	-360.07321	-360.064202	-360.063258	-360.106823	32.366	
C	 0.0979256115	 1.5273734172	 0.1162889683	-0.514515
C	 0.0364269662	 0.0435534734	-0.0047630124	 0.271179
C	 0.0482165012	-0.7593312292	-1.125853736	 0.168155
N	 0.1425573734	-0.2763694887	-2.460347363	-0.613976
C	 0.0084739628	-2.1220848097	-0.6928336501	-0.294512
C	-0.0388953671	-2.1121560295	 0.6839769931	 0.274615
N	-0.1384122129	-3.1325187967	 1.6565419251	-0.611538
N	-0.0346438728	-0.8028973733	 1.0885412763	-0.321348
H	 0.4060537686	 1.9478630979	-0.8449917584	 0.143744
H	-0.8648868009	 1.9844505183	 0.3852961612	 0.115052
H	 0.8283053922	 1.8468857269	 0.8704361932	 0.115776
H	-0.7275848777	 0.1406574692	-2.7746775008	 0.23455
H	 0.35796968	-1.0315530853	-3.1002461902	 0.230586
H	 0.0336065082	-3.0008062267	-1.3211553626	 0.068772
H	 0.7656164235	-3.3698061642	 2.057193272	 0.240147
H	-0.5151109536	-3.9778942554	 1.2449751624	 0.242831
H	-0.1568604924	-0.5190117242	 2.0451946317	 0.250482
59.7107	112.9677	149.4052	180.6504	230.8033	250.7891	290.9655	330.2501	450.6709	498.7009	601.2105	636.2835	646.9447	667.3338	745.3678	803.1492	831.5047	834.5699	992.8256	1037.7232	1063.4661	1099.4619	1164.6791	1193.4923	1217.0322	1264.5884	1344.8509	1410.5617	1466.1227	1482.4056	1484.8482	1502.7409	1564.932	1638.0397	1651.6429	1674.015	2999.3756	3045.3478	3111.0749	3230.8272	3478.2792	3501.9457	3586.4638	3587.7247	3676.3092
CC1=C(N)C=C(N)N1	Cc1c(N)cc(N)[nH]1	
InChI=1S/C5H9N3/c1-3-4(6)2-5(7)8-3/h2,8H,6-7H2,1H3	InChI=1S/C5H9N3/c1-3-4(6)2-5(7)8-3/h2,8H,6-7H2,1H3
