13
gdb 4692	6.50753	1.35605	1.12543	4.1292	73.71	-0.1961	-0.007	0.1891	987.9533	0.096723	-357.644745	-357.637452	-357.636508	-357.676019	27.297	
N	 0.1603093364	 1.3972396555	 0.1405449708	-0.617238
C	-0.0004244284	 0.0122170543	 0.0237181371	 0.298294
C	-1.101336568	-0.8155680887	-0.039985282	-0.161124
N	-0.7193831551	-2.1302760699	-0.0552855632	-0.29752
C	 0.6004023915	-2.1245407649	-0.0114529143	 0.184286
N	 1.0800503021	-0.8298108522	 0.0429646326	-0.328908
C	 1.4660835236	-3.238684385	-0.0267046029	 0.266003
C	 2.2324217964	-4.1680713771	-0.0329529448	-0.414384
H	 0.6656699573	 1.8070792864	-0.6388412736	 0.250814
H	-0.736108971	 1.8604796979	 0.2189396686	 0.256186
H	-2.1411374721	-0.5267010561	-0.0759820274	 0.100122
H	 2.042293344	-0.557168946	 0.1577491965	 0.270006
H	 2.8935214132	-4.9988808243	-0.0400368672	 0.193463
140.8026	147.6167	182.7883	292.737	364.5872	465.0654	515.7227	539.1635	553.6178	577.6915	662.9213	684.3547	713.4627	726.6514	790.9955	818.433	1001.9125	1051.972	1125.6728	1190.942	1213.7214	1298.34	1410.3443	1460.9352	1496.4308	1618.0439	1658.0218	2230.0778	3244.4237	3502.1231	3505.0469	3609.9308	3661.8343
NC1=CN=C(N1)C#C	Nc1cnc([nH]1)C#C	
InChI=1S/C5H5N3/c1-2-5-7-3-4(6)8-5/h1,3H,6H2,(H,7,8)	InChI=1S/C5H5N3/c1-2-5-7-3-4(6)8-5/h1,3H,6H2,(H,7,8)
