13
gdb 2915	6.70452	1.91876	1.64348	3.8049	50.84	-0.2478	-0.0359	0.2119	730.8645	0.101295	-381.587333	-381.580721	-381.579777	-381.618965	22.263	
O	-0.6699868662	 0.5916131916	 0.4570525552	-0.228241
C	 0.1779729751	 0.9306044325	-0.3211252565	 0.155076
C	 1.4058528005	 1.7629151956	 0.0573167423	 0.133468
O	 2.5522949956	 1.0377429234	-0.3197380263	-0.262728
C	 3.4499350248	 1.9646273564	-0.9271527329	-0.090202
C	 2.4955403345	 2.9560931615	-1.5856925057	-0.093996
O	 1.3876680958	 2.9713235378	-0.6846097877	-0.266736
H	 0.140548283	 0.6830162996	-1.4051608679	 0.08272
H	 1.3889899742	 1.9964223775	 1.1319038729	 0.097368
H	 4.078298666	 2.4526671288	-0.1692252881	 0.111832
H	 4.0834591028	 1.4181068987	-1.6284478829	 0.126499
H	 2.893795607	 3.971206762	-1.6601981059	 0.123248
H	 2.1839210569	 2.6163605047	-2.5820973566	 0.111693
51.3763	75.5259	219.2827	318.8609	364.876	441.3891	656.4594	758.9232	893.4252	928.4832	954.9842	988.8381	1027.8138	1059.464	1087.6066	1142.4014	1167.5504	1223.265	1245.5529	1316.9827	1330.7774	1378.182	1382.3901	1412.5729	1512.4389	1521.404	1850.914	2894.2244	3007.8763	3012.2952	3020.9589	3099.3533	3116.9819
O=CC1OCCO1	O=CC1OCCO1	
InChI=1S/C4H6O3/c5-3-4-6-1-2-7-4/h3-4H,1-2H2	InChI=1S/C4H6O3/c5-3-4-6-1-2-7-4/h3-4H,1-2H2
