12
gdb 4697	6.58257	1.39963	1.15523	1.9726	69.58	-0.2047	-0.0143	0.1905	953.2032	0.084408	-377.527126	-377.520181	-377.519237	-377.558022	26.113	
N	 0.1211420859	 1.3076908898	 0.1457997253	-0.596083
C	-0.0322190239	-0.0448100762	 0.045489248	 0.463018
N	-1.1485885705	-0.7173556473	 0.0085207611	-0.325167
C	-0.7309842787	-2.0343019797	-0.0161157735	-0.196808
C	 0.627942592	-2.1063880542	 0.0010949007	 0.172385
O	 1.0902573637	-0.786089837	 0.0425565202	-0.213329
C	 1.5619934434	-3.1468070024	-0.0178294866	 0.240131
C	 2.3566594621	-4.0532261769	-0.03467889	-0.415917
H	 0.9891154488	 1.6781688388	-0.2099164628	 0.270809
H	-0.7001281232	 1.8313641229	-0.1152545331	 0.276092
H	-1.4318322832	-2.8532302007	-0.0490308425	 0.13139
H	 3.0547151535	-4.8530712171	-0.0491303168	 0.193479
142.2407	150.3781	292.1955	330.0459	394.8882	456.6348	505.4465	543.8748	550.8087	572.886	657.8847	697.0146	748.3112	770.4539	877.2436	974.7171	1005.9882	1086.4171	1205.283	1208.1273	1286.6203	1432.9208	1587.2263	1613.7267	1673.957	2226.4946	3268.6054	3503.1594	3587.2895	3699.8318
NC1=NC=C(O1)C#C	Nc1ncc(o1)C#C	
InChI=1S/C5H4N2O/c1-2-4-3-7-5(6)8-4/h1,3H,(H2,6,7)	InChI=1S/C5H4N2O/c1-2-4-3-7-5(6)8-4/h1,3H,(H2,6,7)
