17
gdb 2701	14.57341	0.81332	0.78528	1.3944	66.84	-0.2594	0.0554	0.3149	1386.747	0.146161	-309.682996	-309.674188	-309.673244	-309.716593	30.476	
O	-0.0758917777	 1.4681062611	 0.0105703813	-0.421104
C	 0.0308031438	 0.0525347334	 0.0019488816	-0.079514
C	-1.3789526154	-0.5233357055	 0.0123191544	-0.162888
C	-1.3959628519	-2.0533414447	 0.0042836252	-0.179395
C	-2.8289312224	-2.6229509214	 0.0149462279	-0.354067
C	-2.8648706455	-4.0803500695	 0.0075541085	 0.292104
C	-2.8670323397	-5.2824354757	 0.0010966924	-0.436814
H	 0.8120725246	 1.8368304598	 0.0039658723	 0.28581
H	 0.5704017089	-0.3017405942	-0.8919568595	 0.085311
H	 0.5873395486	-0.3112626717	 0.8815318035	 0.085311
H	-1.9020321529	-0.1425409786	 0.8984098001	 0.106406
H	-1.9188146204	-0.1331199075	-0.8594910431	 0.106404
H	-0.8713924686	-2.4333716905	-0.8804491862	 0.109548
H	-0.8546110143	-2.4427704567	 0.8747041484	 0.109549
H	-3.363010673	-2.249110585	 0.8985155331	 0.130452
H	-3.3797669962	-2.2397815109	-0.854227629	 0.130455
H	-2.8821547181	-6.3438356225	-0.0046067908	 0.192433
62.9699	99.7834	102.1549	142.1707	213.9247	261.1224	346.616	351.1947	419.0493	550.4416	614.4451	634.5496	740.9495	796.5969	925.6807	941.4762	1013.0757	1040.6349	1058.0298	1087.7152	1129.1937	1205.9059	1225.526	1281.4352	1288.3049	1316.8028	1323.8104	1348.4334	1392.0666	1466.4677	1473.4499	1489.3336	1504.0397	1529.399	2238.7902	2958.0949	2982.9393	3015.1056	3024.7683	3036.1481	3041.3819	3059.1436	3084.0476	3508.8314	3831.1517
OCCCCC#C	OCCCCC#C	
InChI=1S/C6H10O/c1-2-3-4-5-6-7/h1,7H,3-6H2	InChI=1S/C6H10O/c1-2-3-4-5-6-7/h1,7H,3-6H2
