17
gdb 3362	4.16223	2.62832	2.53249	0.182	68.23	-0.2226	0.0239	0.2465	660.1028	0.150086	-272.583285	-272.577007	-272.576063	-272.612962	24.896	
C	-0.0980754033	 1.5544377625	 0.0496598892	-0.41357
C	 0.0500091194	 0.052984185	-0.0409240051	 0.006099
C	 0.7131736206	-0.6666207547	-1.1906615488	-0.063273
C	 1.6662878158	 0.1015758307	-2.1110600658	-0.268074
C	 2.7962023225	 0.521611374	-1.1932019409	-0.074848
C	 2.6263882812	 0.0622540964	 0.0495620421	-0.067611
C	 1.3552436698	-0.7013353239	 0.194562616	-0.097221
H	 0.8140705711	 2.0752047638	-0.2505378875	 0.123954
H	-0.9135719353	 1.9033272056	-0.5943683974	 0.112016
H	-0.3328076622	 1.8604012356	 1.0752318938	 0.112337
H	-0.8144780812	-0.4836052263	 0.3453006174	 0.080629
H	 0.2145341185	-1.5419195268	-1.5911032439	 0.079204
H	 2.0281550628	-0.533950593	-2.9301602445	 0.104913
H	 1.1847565968	 0.9664766782	-2.5878760082	 0.107012
H	 3.6173371363	 1.1465178147	-1.5270917785	 0.089432
H	 3.3046466176	 0.2346594545	 0.8780247481	 0.089696
H	 1.3291290296	-1.5827438262	 0.8270382438	 0.079306
180.8324	210.7422	226.6128	360.2741	474.8871	543.0496	692.9989	719.5331	751.2625	782.4674	802.7499	895.202	933.1365	947.7727	958.8595	960.3241	998.3732	1035.3382	1070.074	1088.9035	1114.3528	1125.4207	1143.5553	1187.569	1226.1836	1302.959	1310.6396	1359.1961	1380.949	1410.6834	1428.5663	1475.6156	1498.2524	1501.3583	1666.3259	3011.427	3029.9087	3034.4431	3084.0552	3112.8782	3128.3543	3155.7743	3171.4878	3180.7673	3205.8644
CC1C2CC=CC12	C[C@H]1[C@H]2CC=C[C@@H]12	
InChI=1S/C7H10/c1-5-6-3-2-4-7(5)6/h2-3,5-7H,4H2,1H3	InChI=1S/C7H10/c1-5-6-3-2-4-7(5)6/h2-3,5-7H,4H2,1H3/t5-,6+,7-/m1/s1
