15
gdb 3037	10.6876	1.14092	1.10543	4.0252	62.41	-0.2529	0.0357	0.2886	1031.5211	0.125349	-304.681399	-304.674166	-304.673222	-304.713225	25.306	
N	-0.082915212	-1.1310274913	 0.0403818921	-0.304344
C	-0.0192104387	 0.02134499	 0.097432914	 0.25409
C	 0.0872103707	 1.4757290175	 0.1627487162	-0.332248
C	 1.4874382794	 1.9775463569	-0.2351926871	-0.138606
N	 1.5086074044	 3.4301474723	-0.1742084186	-0.064049
C	 1.9230582751	 4.0196219438	 1.0987817852	-0.225392
C	 2.8266834516	 4.0488344341	-0.0835104312	-0.221646
H	-0.6600124743	 1.9262150482	-0.4983642936	 0.164277
H	-0.1494447011	 1.8029075811	 1.1814097839	 0.153861
H	 2.2454089296	 1.5093621367	 0.4163412778	 0.10308
H	 1.7057321933	 1.6695450499	-1.2629410257	 0.128765
H	 1.3834766343	 4.9107668099	 1.4046018157	 0.124697
H	 2.1916583618	 3.3452063729	 1.91083855	 0.114975
H	 3.6964215259	 3.3943984624	-0.0589644188	 0.117233
H	 2.9581022401	 4.9611854355	-0.6573887796	 0.125308
72.589	108.3778	130.1534	262.6077	360.4874	403.0744	437.2977	533.7078	772.4664	786.9797	841.1008	893.1566	963.2226	1013.6122	1033.4632	1056.7619	1088.7799	1114.9492	1121.9964	1171.0995	1181.4049	1242.455	1298.8076	1313.3877	1325.8725	1399.2254	1468.4165	1488.2234	1499.7987	1521.3669	2363.9033	2956.8094	3051.0074	3072.2636	3094.5657	3098.1007	3100.8107	3182.8787	3196.8175
N#CCCN1CC1	N#CCCN1CC1	
InChI=1S/C5H8N2/c6-2-1-3-7-4-5-7/h1,3-5H2	InChI=1S/C5H8N2/c6-2-1-3-7-4-5-7/h1,3-5H2
