19
gdb 1317	3.31117	2.4551	2.0606	1.7334	66.82	-0.2382	0.0794	0.3176	771.9296	0.169999	-310.916474	-310.908323	-310.907379	-310.948378	30.284	
C	-0.3986450934	 1.4278456759	-0.0430474335	-0.416804
C	 0.0713721941	-0.018626418	-0.0766639481	-0.062637
C	 1.4155577467	-0.3438653156	-0.7567198081	-0.082666
O	 1.8770462395	-1.0843661299	 0.3872735963	-0.324622
C	 0.7194227615	-0.6843565849	 1.1825094031	 0.426127
C	 1.1546738972	 0.2507477903	 2.3059075518	-0.426225
C	-0.0087716261	-1.9083809902	 1.7199471661	-0.427925
H	 0.385368498	 2.105995961	 0.3073921295	 0.119174
H	-0.6944986216	 1.7569297319	-1.0453249165	 0.117586
H	-1.2682782145	 1.5519230461	 0.6113816128	 0.117628
H	-0.7327548251	-0.6534162497	-0.4614184696	 0.074638
H	 1.3794723013	-0.9613252588	-1.6621314913	 0.097543
H	 2.0447647942	 0.5356736142	-0.9577708591	 0.089962
H	 1.7219935772	 1.1014859716	 1.920387076	 0.11704
H	 0.2925607996	 0.6325602809	 2.8633505979	 0.111505
H	 1.7992236787	-0.2917313447	 3.0048639135	 0.12171
H	 0.6228587697	-2.4495669152	 2.4321900408	 0.120801
H	-0.9309426962	-1.6166000544	 2.2352457422	 0.111418
H	-0.2665355106	-2.5916616703	 0.9058892961	 0.115746
67.9893	191.399	211.5192	231.2581	262.7528	290.0991	349.9233	385.1217	421.4913	500.7824	643.23	727.5975	859.2315	899.3046	919.7304	926.3575	973.2478	993.4022	1024.2541	1051.8681	1128.3472	1147.8279	1174.1799	1177.7673	1230.4668	1268.1061	1296.438	1340.9025	1389.038	1401.6114	1411.1194	1417.9216	1472.0033	1480.5526	1489.299	1497.5841	1501.9052	1510.4111	1528.2636	2990.9365	3029.2947	3031.0082	3037.9002	3040.8509	3059.6131	3092.4461	3098.2746	3105.5869	3106.9485	3112.871	3120.918
CC1COC1(C)C	C[C@H]1COC1(C)C	
InChI=1S/C6H12O/c1-5-4-7-6(5,2)3/h5H,4H2,1-3H3	InChI=1S/C6H12O/c1-5-4-7-6(5,2)3/h5H,4H2,1-3H3/t5-/m0/s1
