14
gdb 4985	3.36848	2.44058	1.42134	1.9694	69.29	-0.2055	-0.0224	0.1831	818.9922	0.111228	-374.964812	-374.95827	-374.957326	-374.995114	25.888	
N	-0.0000285491	 1.3963687201	 0.0931864906	-0.580079
C	-0.0043936931	 0.0056188628	 0.0300990237	 0.318673
N	-1.1529695665	-0.642651663	 0.0864238337	-0.307975
C	-1.0983865697	-1.9869711648	 0.048574527	-0.043273
C	 0.1004417197	-2.6613224465	-0.0656449527	-0.04326
N	 1.2778635757	-2.0101054084	-0.100166825	-0.307986
C	 1.2356975894	-0.6920225211	-0.0405539174	 0.318712
N	 2.4222266738	 0.0337291252	-0.1000744349	-0.580072
H	 0.6637914998	 1.8312451513	-0.5360291506	 0.254197
H	-0.9313911063	 1.7784281805	-0.0118263127	 0.253857
H	-2.0444511842	-2.5169825859	 0.0998956026	 0.10457
H	 0.138564315	-3.744934692	-0.119660709	 0.10457
H	 3.2321010726	-0.5642186869	 0.0047300121	 0.253862
H	 2.448360283	 0.8254479787	 0.5309345724	 0.254203
168.1421	288.8537	302.8171	326.6966	475.5425	480.8208	500.6821	559.9237	594.6687	604.512	728.4363	739.6363	775.2749	843.5597	859.5276	929.198	951.6068	1072.0274	1072.3448	1138.7138	1265.9389	1291.3199	1331.355	1376.4611	1490.274	1490.7485	1579.1833	1625.646	1636.1277	1647.0611	3165.8808	3185.6741	3526.8761	3529.1814	3632.9772	3635.9567
NC1=NC=CN=C1N	Nc1nccnc1N	
InChI=1S/C4H6N4/c5-3-4(6)8-2-1-7-3/h1-2H,(H2,5,7)(H2,6,8)	InChI=1S/C4H6N4/c5-3-4(6)8-2-1-7-3/h1-2H,(H2,5,7)(H2,6,8)
