21
gdb 1297	6.23606	1.12984	1.01529	0.8536	72.37	-0.2489	0.088	0.337	1232.7486	0.192456	-312.126544	-312.117027	-312.116082	-312.160843	33.273	
C	-0.0108188157	 1.5107421041	-0.0406885039	-0.384728
C	 0.0172023172	-0.0083856444	-0.0167377157	-0.026558
O	 0.6756255845	-0.4665150172	-1.1779459914	-0.245995
C	 0.7582188786	-1.8729068146	-1.2606355243	-0.03562
C	 1.4489375348	-2.2630564428	-2.5671810945	 0.022438
C	 1.6708653558	-3.7794305485	-2.6177285293	-0.392368
C	 0.6586779229	-1.7645153861	-3.78312139	-0.378893
H	 1.0061554243	 1.9124852946	-0.0660574475	 0.125681
H	-0.5425164991	 1.8704834584	-0.926266612	 0.125384
H	-0.5157632477	 1.8980617938	 0.8493539206	 0.112933
H	 0.5394821527	-0.3708503355	 0.8856171234	 0.082591
H	-1.008566621	-0.4136962592	 0.02465829	 0.083135
H	 1.3203039911	-2.2726241335	-0.3985234009	 0.077861
H	-0.2524202144	-2.319403615	-1.2204860387	 0.07705
H	 2.4287005327	-1.7667052277	-2.5662754561	 0.081323
H	 0.7158296298	-4.3184001601	-2.6016393891	 0.112284
H	 2.1945188149	-4.0666232744	-3.5348519632	 0.113693
H	 2.266819225	-4.1300728271	-1.7681791333	 0.110254
H	 1.1941935471	-1.9763097267	-4.7142541936	 0.105536
H	-0.3186300804	-2.2596778324	-3.8414300204	 0.104885
H	 0.4876647169	-0.6876999355	-3.71794206	 0.129113
61.6851	79.966	129.3537	153.0809	213.3998	238.4641	244.6175	302.8279	311.3418	408.7651	452.2966	499.7375	821.484	831.5663	900.8178	924.5651	932.3469	962.6318	976.8322	1044.4923	1123.7579	1162.1004	1166.6708	1183.2176	1200.6884	1205.1655	1275.0979	1296.4098	1328.3915	1373.5264	1388.5309	1397.4338	1405.8999	1417.5688	1452.0522	1483.2901	1488.8988	1489.5946	1499.2243	1503.0368	1511.1471	1513.6678	1536.7717	2931.9235	2951.746	2964.1356	2972.4911	3019.1784	3023.978	3029.829	3044.1835	3087.2089	3092.9708	3102.2684	3118.3808	3120.4832	3127.0275
CCOCC(C)C	CCOCC(C)C	
InChI=1S/C6H14O/c1-4-7-5-6(2)3/h6H,4-5H2,1-3H3	InChI=1S/C6H14O/c1-4-7-5-6(2)3/h6H,4-5H2,1-3H3
