14
gdb 4891	5.42476	1.40952	1.18049	3.3441	61.37	-0.194	0.037	0.231	980.811	0.107064	-415.860987	-415.853364	-415.85242	-415.893383	27.329	
C	 0.1785821119	 1.2299490551	-0.3120801564	-0.253332
O	-0.3966150773	 0.1307975521	 0.4073120598	-0.268146
C	 0.4603677273	-0.5501524584	 1.1846231864	 0.355629
C	 0.9282436603	-1.7975981421	 1.0804883483	-0.152345
O	 1.7413296557	-2.0749571595	 2.1762652284	-0.215844
C	 1.7622696694	-0.9631442079	 2.9938416667	 0.478127
N	 2.3369584961	-0.8438677603	 4.1150335668	-0.599025
N	 1.024083097	 0.0122861667	 2.3418800398	-0.403138
H	 0.9658275527	 0.8761298171	-0.9871848983	 0.132339
H	-0.6335217557	 1.6753488822	-0.8877412888	 0.143709
H	 0.5980888335	 1.9779440349	 0.3699207607	 0.129414
H	 0.8068423315	-2.5684829359	 0.3424445275	 0.151131
H	 2.8004927766	-1.711274966	 4.3727670508	 0.225634
H	 0.6277528611	 0.782649602	 2.8536118884	 0.275848
61.679	134.4744	145.8656	225.9201	341.2906	401.1657	426.3757	512.3439	601.8472	649.1832	712.7578	721.2998	758.8194	762.1143	919.427	989.1979	1048.2029	1064.6231	1096.4849	1173.0823	1201.6208	1222.1614	1271.6004	1354.3393	1408.4128	1478.5321	1486.7721	1502.3297	1740.509	1796.5514	3023.6426	3092.	3148.7566	3312.2669	3538.7897	3671.3705
COC1=COC(=N)N1	COC1=CO[C@@H]([NH])N1	
InChI=1S/C4H6N2O2/c1-7-3-2-8-4(5)6-3/h2H,1H3,(H2,5,6)	InChI=1S/C4H7N2O2/c1-7-3-2-8-4(5)6-3/h2,4-6H,1H3/t4-/m0/s1
