14
gdb 2314	7.54833	1.41097	1.30013	5.0918	58.32	-0.2825	0.0296	0.3121	904.0786	0.112342	-324.572987	-324.565602	-324.564658	-324.605037	25.512	
C	 0.0575079434	 1.5291434008	-0.1866526404	-0.422404
C	-0.0324205223	 0.0520366425	 0.0998019226	 0.073866
O	 1.1790076731	-0.7141896218	 0.0483871901	-0.245602
C	 0.5009984511	-0.6195994676	 1.29641568	 0.06742
C	 1.2165507147	 0.1150555385	 2.4200036886	-0.369117
C	 2.1634255828	-0.7496635329	 3.1250316703	 0.263978
N	 2.8994447988	-1.4412497532	 3.6856359773	-0.297322
H	 0.9107284855	 1.9971693761	 0.3082781814	 0.12828
H	 0.1665048852	 1.6923424656	-1.2635059288	 0.140854
H	-0.8580125418	 2.0357627225	 0.1368788213	 0.129313
H	-0.8755653758	-0.4452357577	-0.3841543473	 0.099882
H	 0.0199551443	-1.5445873685	 1.6175344141	 0.112035
H	 1.7569756825	 0.9800128611	 2.0277466852	 0.161144
H	 0.4809328184	 0.4849385946	 3.1447476255	 0.157673
49.1587	125.4147	166.9988	233.2767	332.1354	382.9739	426.6006	497.6371	548.0589	770.0267	832.5869	892.4668	937.3224	982.9393	1006.6265	1089.8251	1097.365	1172.8594	1180.0214	1238.4582	1297.9108	1319.6971	1397.9927	1418.6931	1445.9726	1468.5047	1489.8644	1512.1844	2366.6125	3043.0864	3046.6882	3085.5542	3100.9148	3105.7065	3113.7326	3136.3893
CC1OC1CC#N	C[C@H]1O[C@H]1CC#N	
InChI=1S/C5H7NO/c1-4-5(7-4)2-3-6/h4-5H,2H2,1H3	InChI=1S/C5H7NO/c1-4-5(7-4)2-3-6/h4-5H,2H2,1H3/t4-,5+/m1/s1
