17
gdb 4048	4.13543	1.39092	1.06117	1.8225	78.45	-0.2109	-0.0193	0.1916	1098.4078	0.141862	-363.852887	-363.84474	-363.843796	-363.885767	29.887	
C	-0.0303488386	 1.4833998919	 0.0496412727	-0.487863
C	 0.0023443789	-0.0071694827	-0.0359275	 0.320429
C	-0.0132147905	-0.7568067703	-1.151028602	-0.248579
C	 0.0305655004	-2.1776771588	-0.826686208	 0.388762
C	 0.0806976072	-2.3237983568	 0.6870592593	-0.300884
C	 0.0600238654	-0.8647447675	 1.2107462073	-0.308763
N	 0.0311627746	-3.1999204699	-1.5952164777	-0.24645
O	-0.0195887869	-2.8195009758	-2.9533172414	-0.400964
H	 0.8575734823	 1.8652300575	 0.5700106828	 0.131737
H	-0.0754281949	 1.9471475319	-0.9386614119	 0.130856
H	-0.8972501857	 1.8234617692	 0.6307787736	 0.131588
H	-0.0528211029	-0.3865255763	-2.165863989	 0.112219
H	-0.7718569993	-2.9038469691	 1.0505202484	 0.125593
H	 0.9825018411	-2.859099953	 0.9963649538	 0.125609
H	 0.9473748038	-0.6236375636	 1.810108831	 0.112002
H	-0.8019252363	-0.6667309625	 1.8608477562	 0.112065
H	-0.0131150084	-3.6726934241	-3.3986201351	 0.302641
51.9105	150.6355	190.1797	196.731	256.8779	340.6819	373.9101	433.4908	499.7292	579.0176	593.7864	696.538	818.1965	873.0162	888.1689	892.1841	956.9657	994.1012	1002.7021	1024.9253	1071.0268	1168.2207	1170.1052	1231.156	1238.8841	1276.2629	1314.2275	1352.2989	1397.7728	1414.6099	1470.6992	1477.6437	1482.5345	1492.1793	1682.0109	1726.6781	3015.8856	3021.6442	3042.7013	3062.7613	3064.9003	3101.5952	3118.8484	3235.6653	3826.3126
CC1=CC(CC1)=NO	CC1=CC(=NO)CC1	
InChI=1S/C6H9NO/c1-5-2-3-6(4-5)7-8/h4,8H,2-3H2,1H3	InChI=1S/C6H9NO/c1-5-2-3-6(4-5)7-8/h4,8H,2-3H2,1H3
