19
gdb 1146	3.37392	2.47593	1.88821	1.2791	67.97	-0.245	0.0744	0.3194	787.4978	0.168889	-310.914919	-310.906297	-310.905353	-310.94668	32.639	
C	-0.0506549804	 1.5163341701	-0.0536625032	-0.452994
C	-0.0004676205	 0.0010092514	 0.031729174	 0.302993
C	-1.2472734895	-0.6681258953	-0.5202136057	-0.439974
C	 1.3362702233	-0.6925104018	-0.20235793	-0.393057
C	 0.7184924069	-0.6709716483	 1.1803760489	 0.372781
C	 1.3672305899	 0.1014825209	 2.3088259492	-0.445045
O	 0.1094687915	-1.8613104254	 1.6260889819	-0.461334
H	 0.8789307359	 1.9908832875	 0.2696505705	 0.110921
H	-0.2320819184	 1.8280354359	-1.0889475551	 0.115123
H	-0.8651496716	 1.921734591	 0.5583170537	 0.115509
H	-1.3702117794	-0.425731219	-1.58229601	 0.105281
H	-1.2038033032	-1.7518048139	-0.4105752157	 0.128958
H	-2.1430185855	-0.3164907171	 0.0052641808	 0.111351
H	 1.3226042781	-1.6389660003	-0.733232778	 0.10493
H	 2.2126804099	-0.0789851473	-0.389486298	 0.100437
H	 1.8473664147	 1.0199100329	 1.965048261	 0.117036
H	 0.6282876771	 0.3596075148	 3.0744613926	 0.124419
H	 2.1423262535	-0.5116387223	 2.7862642879	 0.104368
H	 0.8112471077	-2.4602627639	 1.9039958652	 0.278296
161.8488	175.3	190.1644	208.0077	266.5006	282.8765	326.0181	364.3074	398.972	428.4846	458.4508	510.8689	679.0725	702.6131	883.6007	907.5112	923.4753	965.2483	974.6019	1021.8683	1036.0053	1041.6857	1086.5866	1156.9817	1205.8267	1222.1906	1302.3297	1309.7871	1400.1825	1408.087	1413.7838	1425.3861	1478.5099	1479.5888	1488.8243	1492.925	1495.7884	1508.0448	1522.2081	3022.8618	3024.5836	3029.3565	3078.3011	3081.7169	3085.2883	3112.5526	3118.0302	3131.1163	3144.796	3207.9012	3792.7969
CC1(C)CC1(C)O	CC1(C)C[C@]1(C)O	
InChI=1S/C6H12O/c1-5(2)4-6(5,3)7/h7H,4H2,1-3H3	InChI=1S/C6H12O/c1-5(2)4-6(5,3)7/h7H,4H2,1-3H3/t6-/m0/s1
