12
gdb 3949	7.82435	1.93953	1.57904	5.8627	51.83	-0.2502	0.0003	0.2505	719.9692	0.091607	-356.680129	-356.673745	-356.672801	-356.711319	21.885	
O	 0.0286550852	 1.399168542	 0.2601348463	-0.40248
C	 0.0306302228	 0.0150427677	-0.0297946188	-0.188986
C	-1.3867640181	-0.4554549136	 0.0041160776	 0.344874
C	-2.5863854349	 0.2123781149	-0.0664920479	-0.129094
N	-3.6021421214	-0.6961884186	-0.0115816851	-0.185565
N	-3.1043610454	-1.8919671964	 0.0868963083	-0.115993
N	-1.7593956235	-1.7551500234	 0.0998476212	-0.252196
H	 0.9046905612	 1.7472364657	 0.0702721738	 0.297246
H	 0.4652421156	-0.1851030521	-1.0232405004	 0.115623
H	 0.630797083	-0.5538748259	 0.7007872094	 0.104585
H	-2.7638708317	 1.2713339148	-0.14263777	 0.135585
H	-1.1846019227	-2.5787659551	 0.1812622455	 0.276401
35.546	190.6802	216.7244	267.8512	445.5692	558.1615	663.9605	701.3633	727.9112	857.6612	993.4731	1038.4134	1054.2092	1064.5773	1096.0452	1131.8628	1216.9238	1234.1535	1254.2292	1336.6748	1369.4742	1439.6651	1477.4171	1514.9308	1615.8737	2952.746	2972.4877	3291.6462	3653.8536	3836.817
OCC1=CN=NN1	OCc1cnn[nH]1	
InChI=1S/C3H5N3O/c7-2-3-1-4-6-5-3/h1,7H,2H2,(H,4,5,6)	InChI=1S/C3H5N3O/c7-2-3-1-4-6-5-3/h1,7H,2H2,(H,4,5,6)
