16
gdb 1781	4.88176	1.89579	1.71667	3.0762	62.43	-0.2379	-0.0213	0.2166	788.3769	0.134378	-325.759393	-325.751509	-325.750564	-325.791157	28.081	
C	-0.2158432769	 1.4412057626	-0.0645936703	-0.314869
N	 0.0246095021	 0.0113221417	 0.0730227393	-0.109068
C	 1.3539463864	-0.4925980591	-0.176869628	-0.27891
C	 0.8019455422	-0.483938447	 1.227154352	 0.213027
C	 1.3960647509	 0.4166918439	 2.2874221337	-0.474893
C	 0.2587500982	-1.7882199498	 1.7230905215	 0.143263
O	 0.4076968891	-2.2079091162	 2.8431745894	-0.263871
H	 0.6536399762	 2.0749490304	 0.1633254453	 0.106601
H	-0.5165068968	 1.6389917165	-1.0980793373	 0.132405
H	-1.0413820822	 1.7349491494	 0.590443784	 0.131553
H	 1.4235511552	-1.4154495096	-0.7486773948	 0.121209
H	 2.157545772	 0.2202721725	-0.3624069569	 0.116302
H	 1.92052799	 1.2724320368	 1.8594344685	 0.11808
H	 0.6202520297	 0.7850894338	 2.9661572874	 0.133133
H	 2.1042786516	-0.157527058	 2.8898405401	 0.146349
H	-0.3095588375	-2.3497111182	 0.9489932061	 0.07969
95.172	152.083	181.0479	221.0562	259.9806	291.6347	375.455	425.8951	440.6687	560.2389	722.6312	759.3065	882.42	929.0784	991.8273	1022.945	1067.4135	1098.704	1119.8186	1147.555	1164.8708	1202.2492	1319.5066	1348.2288	1404.3213	1424.0848	1448.5375	1481.511	1485.8188	1498.8477	1502.6502	1507.3334	1822.6963	2896.0991	2992.9101	3051.3806	3076.4803	3080.2302	3110.0879	3116.8537	3139.2386	3166.2635
CN1CC1(C)C=O	CN1C[C@]1(C)C=O	
InChI=1S/C5H9NO/c1-5(4-7)3-6(5)2/h4H,3H2,1-2H3	InChI=1S/C5H9NO/c1-5(4-7)3-6(5)2/h4H,3H2,1-2H3/t5-,6?/m1/s1
