14
gdb 4392	3.75295	2.04379	1.33413	2.0261	68.95	-0.233	-0.0517	0.1813	875.8716	0.108215	-378.768194	-378.761256	-378.760312	-378.799439	25.623	
C	-0.0184467993	 1.4644298084	 0.0940176834	-0.470639
C	-0.0067109829	-0.0203869031	-0.0654311222	 0.422341
N	-0.0455868765	-0.5969674435	-1.2088368973	-0.318191
C	-0.0287537755	-1.9867177276	-1.198976499	-0.01737
C	 0.0248972366	-2.7218538133	-0.0726144862	-0.142558
C	 0.0683694405	-2.0604207036	 1.2120737114	 0.376762
N	 0.1199482559	-2.6391882992	 2.336901793	-0.533813
O	 0.0484356857	-0.65544033	 1.1318254092	-0.253554
H	 0.8804563833	 1.7952946346	 0.6241418843	 0.152002
H	-0.0634318972	 1.9346814293	-0.8870891374	 0.156913
H	-0.8799058074	 1.7738972574	 0.6945788195	 0.152017
H	-0.0623438163	-2.4519429579	-2.1786909227	 0.123133
H	 0.0376216169	-3.8032831945	-0.0735098891	 0.129058
H	 0.1422331162	-1.960368677	 3.0980262933	 0.223899
121.3674	138.5177	186.3739	302.5782	392.3429	464.6723	527.3652	569.4724	613.4495	740.2549	751.0315	839.0388	872.502	878.5253	962.6295	1000.9537	1007.2654	1057.4733	1065.2434	1126.6239	1208.773	1261.1195	1330.7889	1409.0356	1429.1599	1468.939	1473.9206	1624.1285	1675.6518	1758.6735	3048.9922	3106.1552	3171.7231	3187.366	3235.0137	3493.5827
CC1=NC=CC(=N)O1	CC1=NCC=C([NH])O1	
InChI=1S/C5H6N2O/c1-4-7-3-2-5(6)8-4/h2-3,6H,1H3	InChI=1S/C5H7N2O/c1-4-7-3-2-5(6)8-4/h2,6H,3H2,1H3
