14
gdb 457	7.64601	3.12341	2.31329	1.8189	55.75	-0.2252	0.0249	0.2501	566.4241	0.119949	-270.43928	-270.433217	-270.432273	-270.468829	21.372	
C	-0.0557347629	 1.4900161204	 0.0423118064	-0.493204
C	 0.0116069477	-0.0012531929	-0.019052794	 0.310669
C	-0.0483946128	-0.8065239556	-1.0762471938	-0.196272
C	 0.0624026535	-2.2406027516	-0.6478330355	-0.101698
O	 0.1941150298	-2.197054498	 0.7721512826	-0.264231
C	 0.1698287984	-0.8475751002	 1.2199232803	-0.13909
H	 0.8513256348	 1.9093276943	 0.4956410215	 0.129817
H	-0.1725320412	 1.927662011	-0.9520341593	 0.12832
H	-0.896732334	 1.8235259006	 0.6632496236	 0.129773
H	-0.1607376751	-0.5038882312	-2.1106224655	 0.095631
H	-0.8242880637	-2.8351583195	-0.9214943266	 0.101757
H	 0.9360063713	-2.7487448757	-1.0873856015	 0.101764
H	 1.0998751907	-0.6140805702	 1.7648784467	 0.098386
H	-0.6608546065	-0.7006601912	 1.9304699851	 0.098378
113.3166	169.7621	234.3471	308.2768	443.5952	600.4574	775.7704	805.3943	903.6423	926.0857	954.2707	999.3805	1029.9056	1049.5545	1094.0526	1112.3245	1174.8132	1210.6182	1223.8284	1301.5621	1367.2638	1396.2192	1415.5296	1479.3389	1489.6274	1517.1907	1530.387	1736.8026	2957.4625	2969.1723	2972.1932	2980.6373	3020.4275	3065.8186	3117.3714	3205.0732
CC1=CCOC1	CC1=CCOC1	
InChI=1S/C5H8O/c1-5-2-3-6-4-5/h2H,3-4H2,1H3	InChI=1S/C5H8O/c1-5-2-3-6-4-5/h2H,3-4H2,1H3
