14
gdb 3311	6.45468	1.92775	1.73207	4.0016	57.91	-0.2275	-0.0192	0.2082	723.9071	0.113865	-324.532283	-324.526042	-324.525098	-324.562727	22.878	
O	-0.0376007327	-0.0458923094	-0.1268867839	-0.259959
C	 0.0139837944	 1.1238367441	 0.1659380783	 0.149787
C	 1.2591232693	 1.9659343799	 0.0610798097	-0.074024
C	 1.2123271706	 3.2259734045	-0.8966566871	-0.246685
C	 1.5171700317	 4.1140631038	 0.3132634661	-0.034665
N	 0.4045289284	 3.8929601142	 1.2645426144	-0.328343
C	 1.5415773152	 2.9395011393	 1.2239850942	-0.071194
H	-0.8773190894	 1.6698528521	 0.5393212759	 0.097368
H	 2.1090613699	 1.3216564917	-0.1692751898	 0.095411
H	 2.0144584298	 3.1869499098	-1.6350406673	 0.118201
H	 0.2611857229	 3.4303165116	-1.3943403849	 0.117576
H	 2.0922734787	 5.0308802265	 0.3379708852	 0.100504
H	 0.5596160634	 4.504973804	 2.064981634	 0.233899
H	 2.1325270777	 2.7410571979	 2.1092888653	 0.102125
75.7462	161.9915	276.0593	383.6012	435.2583	530.138	704.6197	804.1202	829.9013	841.7858	887.1498	934.2423	954.5772	992.2101	1026.1464	1075.2765	1088.0471	1108.9174	1133.5383	1176.1728	1206.3812	1249.8659	1269.4734	1317.4568	1321.385	1378.9512	1420.1489	1474.2242	1818.6653	2923.175	3071.5645	3104.5698	3135.352	3188.9801	3202.8098	3478.2718
O=CC1CC2NC12	O=C[C@H]1C[C@H]2N[C@@H]12	
InChI=1S/C5H7NO/c7-2-3-1-4-5(3)6-4/h2-6H,1H2	InChI=1S/C5H7NO/c7-2-3-1-4-5(3)6-4/h2-6H,1H2/t3-,4-,5+/m1/s1
