13
gdb 3110	6.29213	2.12853	1.83692	1.0367	61.08	-0.2346	0.0298	0.2644	687.4107	0.100889	-307.235414	-307.229222	-307.228278	-307.26516	23.651	
C	 0.0169176906	-1.2263966454	-0.0319059052	-0.411111
C	 0.0208412131	-0.0226749369	-0.0134054934	 0.185755
C	 0.0031240495	 1.3949893277	 0.0234097719	 0.105477
C	 0.2779457073	 2.2924979605	-1.1820898004	-0.332555
C	 1.1210324485	 2.44353741	 0.0354859662	 0.062413
O	 0.4691359665	 3.2388716056	 1.0180534617	-0.278881
C	-0.5987395346	 2.2622023644	 1.1359820873	-0.125651
H	 0.0187528693	-2.2878483786	-0.0492818746	 0.188063
H	 0.7386348012	 1.77252792	-2.0152496281	 0.132108
H	-0.4275407988	 3.0759125168	-1.4458154254	 0.121165
H	 2.199038295	 2.344928662	 0.0845076092	 0.120236
H	-1.588569512	 2.6967387813	 0.9565796274	 0.111304
H	-0.5684938558	 1.7756585127	 2.1157124033	 0.121677
162.6196	170.2962	321.5664	440.5438	479.1277	519.0643	567.0217	587.9334	657.6608	754.8471	824.6558	891.825	929.8412	984.3206	996.1152	1024.2484	1061.0771	1086.7703	1093.2248	1156.8094	1209.822	1289.2916	1303.3475	1394.1777	1471.9014	1514.9924	2234.3001	3033.8	3092.4861	3117.8755	3189.6166	3220.2758	3503.8284
C#CC12CC1OC2	C#C[C@]12C[C@H]1OC2	
InChI=1S/C6H6O/c1-2-6-3-5(6)7-4-6/h1,5H,3-4H2	InChI=1S/C6H6O/c1-2-6-3-5(6)7-4-6/h1,5H,3-4H2/t5-,6-/m1/s1
