14
gdb 2327	6.51154	1.58973	1.38458	4.3587	55.96	-0.2369	0.0338	0.2706	843.174	0.113016	-361.713179	-361.70594	-361.704996	-361.744995	25.736	
O	-0.0813997189	 1.4268134499	 0.0420439531	-0.426475
C	 0.0277582384	 0.0298588164	 0.0254743122	 0.058769
C	-0.4851263376	-0.7642235264	 1.2040108668	-0.332517
C	-1.2759979426	-0.7011630377	-0.0908221768	 0.055334
N	-2.4528111996	 0.1038401719	-0.1680172185	-0.282232
C	-3.6898615782	-0.4230732778	-0.3566387722	 0.152435
O	-3.9401853956	-1.6084466202	-0.4207078861	-0.327018
H	 0.5068660544	 1.7698379307	 0.7222383283	 0.296685
H	 0.882754811	-0.352591541	-0.5294508928	 0.10054
H	 0.0112034421	-1.6920525662	 1.4660694513	 0.123806
H	-0.8833042604	-0.1965720998	 2.0382294778	 0.119852
H	-1.3317795248	-1.5955387005	-0.6994749175	 0.129669
H	-2.3186128572	 1.1039123742	-0.1795553673	 0.259572
H	-4.4602869111	 0.3680853066	-0.4517334482	 0.071579
44.0178	164.7961	235.0622	242.3855	296.5847	352.7019	485.1934	569.293	584.8022	731.6516	792.8429	835.6665	923.1972	989.9489	1010.7054	1030.3161	1054.4182	1120.166	1137.354	1175.8805	1223.0277	1253.508	1302.4167	1359.7915	1413.7726	1429.1813	1474.4723	1532.2736	1804.1358	2933.8737	3115.441	3134.2138	3190.8735	3228.7202	3619.0296	3816.3601
OC1CC1NC=O	O[C@H]1C[C@H]1NC=O	
InChI=1S/C4H7NO2/c6-2-5-3-1-4(3)7/h2-4,7H,1H2,(H,5,6)	InChI=1S/C4H7NO2/c6-2-5-3-1-4(3)7/h2-4,7H,1H2,(H,5,6)/t3-,4+/m1/s1
