15
gdb 3987	4.0936	1.01953	0.96086	3.6963	62.29	-0.2646	-0.0126	0.252	1209.8175	0.115763	-436.915926	-436.90686	-436.905916	-436.95116	30.325	
C	 0.9955854604	 0.7110923367	 0.0043475278	-0.488458
C	-0.2351972479	-0.1476563257	 0.0089362962	 0.356693
C	-0.6959846242	-0.7587955128	 1.30630508	-0.174263
O	 0.3275625054	-1.59269454	 1.8818806522	-0.179829
C	 0.321707049	-2.8964795715	 1.5310866956	 0.175243
O	 1.1530801528	-3.66465113	 1.9086084626	-0.270885
N	-0.9694045945	-0.4292656217	-0.9996320658	-0.154108
O	-0.5276093481	 0.1865479776	-2.170861086	-0.387567
H	 1.7022055298	 0.3574516904	 0.7588916236	 0.151432
H	 1.4688115525	 0.7064096124	-0.9777777349	 0.157571
H	 0.7366743708	 1.7493610665	 0.246357511	 0.144662
H	-0.8842188098	 0.0130342905	 2.0585785965	 0.133134
H	-1.6171004493	-1.3246497243	 1.1388315331	 0.134284
H	-0.5313097393	-3.1625806303	 0.8783678856	 0.090251
H	-1.1470162876	-0.1504578478	-2.8273401875	 0.311841
46.7514	56.2608	78.0788	131.037	222.6453	294.5346	308.2229	374.6133	394.3579	434.3941	534.1648	640.8005	691.1751	822.0775	936.7152	991.6263	1022.3275	1045.4932	1057.7444	1087.3419	1140.8078	1279.1782	1299.7421	1380.5854	1400.9028	1409.2159	1430.4107	1478.9146	1485.5732	1489.5616	1734.3258	1869.0317	2962.7831	3038.5604	3054.4314	3108.2274	3109.0037	3156.3027	3816.2517
CC(COC=O)=NO	CC(=NO)COC=O	
InChI=1S/C4H7NO3/c1-4(5-7)2-8-3-6/h3,7H,2H2,1H3	InChI=1S/C4H7NO3/c1-4(5-7)2-8-3-6/h3,7H,2H2,1H3
