8
gdb 3899	3.13062	1.68504	1.11853	1.7309	41.79	-0.2961	-0.057	0.2391	913.3757	0.038631	-391.518453	-391.509552	-391.508608	-391.558096	23.419	
O	-0.2043756094	-0.0195881376	 0.3170582813	-0.248439
C	-0.8587278799	 0.9299574573	 0.1923045661	 0.61652
N	-1.657519879	 1.8400565398	 0.0325083724	-0.405048
C	-1.5111840709	 3.2334982357	 0.1382833581	 0.150228
O	-0.4975054365	 3.806573581	 0.4247129937	-0.238648
N	 3.0171070529	 3.0780801165	-0.3317486766	 0.001775
N	 2.1629904768	 2.4209732316	-0.5447921716	-0.004286
H	-2.4628041039	 3.7389995357	-0.0774349134	 0.127898
7.7561	19.5886	35.6613	45.0197	83.6381	136.3667	178.0221	571.0928	642.1001	750.9203	933.7859	1039.7444	1413.9332	1482.1277	1796.84	2340.1623	2433.7314	3046.3414	7.7653	19.591	35.6627	45.02	83.6388	136.3666	178.0225	571.0927	642.1	750.9202	933.7859	1039.7436	1413.9323	1482.1275	1796.84	2340.1622	2433.7314	3046.3412
O=C1N=CON=N1	O=C=NC=O.N#N	
InChI=1S/C2HN3O2/c6-2-3-1-7-5-4-2/h1H	InChI=1S/C2HNO2.N2/c4-1-3-2-5;1-2/h1H;
