14
gdb 4980	3.38066	2.35115	1.3885	1.825	68.38	-0.1993	-0.006	0.1932	831.6933	0.110253	-378.793199	-378.786618	-378.785674	-378.823518	26.156	
N	-0.046252342	 1.4367223825	-0.1192251913	-0.595441
C	-0.0486663555	 0.0469068504	-0.0465491504	 0.211187
C	-1.2002143435	-0.7278897848	 0.0252198006	-0.156456
C	-1.102215588	-2.1219520554	 0.0312362079	-0.11867
C	 0.1521801669	-2.7027024773	-0.0308093214	-0.033201
N	 1.2795662934	-1.9734372611	-0.0939745801	-0.355579
C	 1.1714096614	-0.6629525705	-0.1013388123	 0.392174
O	 2.3092571941	 0.0804335628	-0.1577349037	-0.436934
H	 0.8319229653	 1.8571153154	 0.1483889423	 0.262154
H	-0.8382852137	 1.8881362999	 0.3143063364	 0.246586
H	-2.1701508553	-0.2415188626	 0.07272735	 0.091527
H	-1.9926214333	-2.7373117786	 0.085899949	 0.093083
H	 0.2780925038	-3.7808928358	-0.0276590488	 0.102834
H	 3.0378810665	-0.554751825	-0.1731596082	 0.296736
174.2558	302.0567	304.8344	330.548	441.7675	468.1492	524.1676	549.0837	585.2228	600.564	626.1915	779.8554	782.1287	813.7479	892.6196	923.1974	955.278	1073.6416	1084.1677	1145.9961	1187.1362	1292.1226	1313.5913	1354.1057	1390.878	1501.858	1515.9487	1627.7309	1641.6349	1658.846	3169.0393	3173.7875	3203.857	3563.8557	3668.3214	3775.3502
NC1=CC=CN=C1O	Nc1cccnc1O	
InChI=1S/C5H6N2O/c6-4-2-1-3-7-5(4)8/h1-3H,6H2,(H,7,8)	InChI=1S/C5H6N2O/c6-4-2-1-3-7-5(4)8/h1-3H,6H2,(H,7,8)
