15
gdb 1108	5.39663	1.7612	1.35024	5.0811	59.77	-0.2441	-0.011	0.2331	882.3031	0.123971	-341.886521	-341.878277	-341.877333	-341.920548	27.919	
C	 0.0316916077	 1.5349014124	-0.0845119162	-0.465976
C	 0.188363025	 0.0380362319	 0.0177408371	 0.377143
N	 1.332631836	-0.5023216002	 0.0865769236	-0.487466
N	-1.0585903705	-0.636733715	 0.0251102605	-0.36808
C	-1.2703271899	-2.0001697448	 0.107762102	 0.418986
C	-2.7378043163	-2.3965216326	 0.0908103542	-0.497745
O	-0.3696666278	-2.8116718952	 0.1868922271	-0.340356
H	 1.020102718	 1.9921050652	-0.0847953683	 0.159253
H	-0.4936383211	 1.8149896229	-1.005337703	 0.130126
H	-0.5464077227	 1.9300806979	 0.7592719786	 0.130083
H	 1.2440003424	-1.5174372193	 0.1501106644	 0.249512
H	-1.8804053897	-0.0556649736	-0.0368580488	 0.249482
H	-3.2232018142	-2.0586301799	-0.8309652528	 0.143064
H	-2.8062690151	-3.4815520838	 0.1569980251	 0.158733
H	-3.2730981018	-1.947964126	 0.9344540765	 0.14324
17.4463	96.9314	115.1669	166.1953	212.4179	360.0995	396.3038	507.4679	539.5381	551.7897	627.5554	655.9939	886.9359	925.9375	973.5993	1015.9464	1040.4905	1051.5846	1083.2547	1131.6459	1251.5158	1353.065	1387.9727	1409.8874	1463.7419	1474.7911	1482.5857	1485.2439	1512.7006	1741.4321	1801.6464	3030.4912	3042.223	3084.3404	3104.7624	3166.3029	3166.4921	3480.5467	3620.9652
CC(=N)NC(C)=O	CC(=N)NC(=O)C	
InChI=1S/C4H8N2O/c1-3(5)6-4(2)7/h1-2H3,(H2,5,6,7)	InChI=1S/C4H8N2O/c1-3(5)6-4(2)7/h1-2H3,(H2,5,6,7)
