13
gdb 2597	3.07354	2.82058	1.7439	3.905	54.65	-0.2799	0.0127	0.2926	717.485	0.101807	-340.609236	-340.602142	-340.601198	-340.64059	24.98	
O	 0.143428512	 1.327566676	 0.489825441	-0.408098
C	-0.0043139551	 0.0751819834	-0.1425023694	-0.141161
C	-1.4145071113	-0.4866090197	-0.0092051806	 0.137317
C	-1.6034608749	-1.9517043133	 0.2193351727	-0.26269
N	-1.8752354344	-0.9987142319	 1.2937640473	-0.315225
C	-2.4057961079	 0.2667925275	-0.752402405	 0.265018
N	-3.1410483011	 0.904612486	-1.376527207	-0.334386
H	-0.3869296152	 1.9744713848	 0.010679869	 0.302424
H	 0.2744741626	 0.1139931021	-1.2057820855	 0.116283
H	 0.6901592858	-0.6060388081	 0.361100924	 0.113882
H	-2.4790824449	-2.4472961537	-0.1871725145	 0.14665
H	-0.7026340635	-2.5597350624	 0.2533546475	 0.128939
H	-1.104299722	-0.9507909706	 1.9567298705	 0.251047
69.8877	155.6772	217.3609	256.8964	321.	377.931	459.9433	571.7002	593.1439	709.9509	850.4592	897.816	922.8122	974.0506	1013.9919	1082.9633	1088.277	1147.025	1197.541	1244.8627	1302.3417	1373.6175	1385.5182	1421.4581	1491.5226	1508.3601	2354.5912	3000.3133	3075.2154	3113.5569	3207.797	3497.562	3802.9806
OCC1(CN1)C#N	OC[C@]1(CN1)C#N	
InChI=1S/C4H6N2O/c5-1-4(3-7)2-6-4/h6-7H,2-3H2	InChI=1S/C4H6N2O/c5-1-4(3-7)2-6-4/h6-7H,2-3H2/t4-/m1/s1
