11
gdb 3028	15.08067	1.04888	1.04316	4.0364	67.31	-0.2666	-0.0524	0.2142	1044.3824	0.079328	-302.254301	-302.247775	-302.246831	-302.285122	22.429	
N	 0.0683481062	-3.7078797568	-0.0363154612	-0.334019
C	 0.0462606461	-2.5460419866	-0.0194771341	 0.209714
C	 0.0226969443	-1.1825084533	 0.0029959697	 0.007396
C	 0.003395361	 0.0271341379	 0.0329292038	 0.143113
C	-0.0115990496	 1.4561036556	 0.0402719323	-0.183684
C	 0.5110172154	 2.1890123482	 1.2395640865	-0.221466
N	 1.2652927786	 2.2101717356	-0.010538665	-0.293699
H	-0.8098773239	 1.9115343499	-0.5395446953	 0.139765
H	 0.0412773007	 3.12951814	 1.5109481499	 0.14202
H	 0.8745577645	 1.5921861045	 2.0704821549	 0.138903
H	 2.0457950667	 1.559000505	 0.0375561585	 0.251958
99.5315	108.9284	244.7038	253.999	473.868	513.3898	578.1729	582.5217	676.5973	809.7399	868.6503	955.1563	985.1153	1088.2289	1113.4183	1156.5487	1223.1855	1256.6061	1294.3071	1390.6834	1505.5958	2261.7509	2390.7995	3121.3105	3147.9307	3214.7121	3505.6128
N#CC#CC1CN1	N#CC#C[C@H]1CN1	
InChI=1S/C5H4N2/c6-3-1-2-5-4-7-5/h5,7H,4H2	InChI=1S/C5H4N2/c6-3-1-2-5-4-7-5/h5,7H,4H2/t5-/m0/s1
