11
gdb 607	6.56461	2.98095	2.34689	4.0674	47.52	-0.278	0.0249	0.3029	534.1305	0.08473	-285.284456	-285.2786	-285.277655	-285.313705	20.749	
O	 0.0533556369	 1.3959271764	 0.3110777661	-0.400769
C	 0.0022155468	 0.0276441137	 0.1019666715	 0.121592
C	-0.4093543002	-0.7918369918	 1.2730068246	-0.291957
C	-1.3590655419	-0.6756555834	 0.0820912298	-0.212513
C	-2.5448890403	 0.1221786799	 0.1843749718	 0.279579
N	-3.4992943688	 0.774499958	 0.2354921278	-0.331907
H	-0.2782860233	 1.8458452558	-0.4743282806	 0.302335
H	 0.7489313318	-0.3802620568	-0.578707552	 0.106662
H	 0.0555636906	-1.7561084702	 1.4384818222	 0.134356
H	-0.6835632442	-0.2418908672	 2.1649678341	 0.156031
H	-1.4566742172	-1.5438513044	-0.5610128654	 0.13659
131.0965	207.0095	307.9341	382.0116	417.739	555.139	648.8629	776.7911	783.5399	864.6453	971.5855	1009.0364	1070.9933	1119.029	1122.4856	1173.2145	1230.9047	1302.3712	1371.0768	1426.8395	1482.4981	2353.5813	3109.1001	3153.4952	3170.5356	3250.3321	3800.4909
OC1CC1C#N	O[C@H]1C[C@H]1C#N	
InChI=1S/C4H5NO/c5-2-3-1-4(3)6/h3-4,6H,1H2	InChI=1S/C4H5NO/c5-2-3-1-4(3)6/h3-4,6H,1H2/t3-,4-/m0/s1
