16
gdb 4492	3.67844	1.67946	1.16741	1.1412	69.19	-0.164	0.0547	0.2188	1002.9606	0.130441	-379.950357	-379.941679	-379.940735	-379.983116	31.595	
C	-0.0425782476	 1.4921023479	 0.0830120375	-0.500967
C	 0.0144669479	 0.0060487444	-0.043424895	 0.319167
C	 0.0217650572	-0.8010446517	-1.1616026919	-0.301465
C	 0.0590832297	-2.1632162713	-0.7333051687	 0.178674
N	 0.1475429289	-3.317421368	-1.5437523024	-0.619669
C	 0.0831111916	-2.1398336408	 0.6391636872	 0.228562
O	 0.0721979792	-3.165455014	 1.5453939659	-0.444091
N	 0.067107275	-0.8198299899	 1.0533683012	-0.346911
H	 0.8281897269	 1.9000008056	 0.6124492735	 0.122227
H	-0.065125705	 1.9462875473	-0.9104314378	 0.13441
H	-0.9374180302	 1.8322442708	 0.6207088373	 0.121913
H	 0.0084282365	-0.45323043	-2.184267424	 0.080346
H	-0.4036796137	-3.2194699996	-2.3884368254	 0.237366
H	-0.1925079591	-4.1307619166	-1.0419830887	 0.236619
H	 0.9695569545	-3.5030384477	 1.6540194445	 0.300386
H	 0.0045265882	-0.5352569462	 2.0151846368	 0.253433
97.3944	145.3822	177.4641	245.3804	257.8569	269.0163	295.6983	297.4566	386.1326	498.6193	589.9476	632.8639	655.8884	666.7807	764.8864	811.4218	847.055	997.5004	1018.1331	1059.4072	1075.9131	1175.6296	1209.0286	1251.3619	1269.5437	1357.408	1416.7944	1443.4561	1478.5721	1503.9645	1509.5642	1567.1086	1646.5522	1687.1561	3009.8912	3050.9488	3119.0018	3234.7097	3508.8583	3595.9483	3681.715	3749.7451
CC1=CC(N)=C(O)N1	Cc1cc(N)c(O)[nH]1	
InChI=1S/C5H8N2O/c1-3-2-4(6)5(8)7-3/h2,7-8H,6H2,1H3	InChI=1S/C5H8N2O/c1-3-2-4(6)5(8)7-3/h2,7-8H,6H2,1H3
