18
gdb 4072	4.62979	1.09296	1.0119	0.791	72.34	-0.2375	0.0128	0.2503	1199.8632	0.151986	-381.049285	-381.040322	-381.039377	-381.083772	31.843	
C	-1.0475970678	 0.6615808128	-0.1761289766	-0.477502
C	 0.2791600654	-0.0297887263	-0.0387809909	 0.375578
C	 0.6263596332	-0.6989137698	 1.2676430304	-0.234969
N	-0.3554708407	-1.7344555465	 1.5929452504	-0.067078
C	-0.0740435885	-3.0647347101	 1.0607567728	-0.216427
C	 0.0963817327	-2.7737071573	 2.5113574307	-0.219498
N	 1.1746536386	-0.1048099574	-0.9481626106	-0.172144
O	 0.7926180475	 0.5674497363	-2.1203386053	-0.396924
H	-0.9377093265	 1.7374386348	 0.0079092077	 0.136874
H	-1.4399080552	 0.546988961	-1.1884264063	 0.146959
H	-1.7562439248	 0.2547605443	 0.5471083104	 0.143022
H	 1.6549321975	-1.0864310493	 1.2012050421	 0.100766
H	 0.5965064187	 0.0437518702	 2.0768717841	 0.109617
H	-0.9354807128	-3.6240999158	 0.7077892487	 0.11729
H	 0.8286512952	-3.1914661383	 0.4660939492	 0.12106
H	 1.1158969411	-2.7120459359	 2.8887894256	 0.110933
H	-0.6369410525	-3.1164200598	 3.2358612189	 0.117598
H	 1.5386747489	 0.392895127	-2.7034549313	 0.304845
56.2235	66.3076	80.8511	152.4572	295.1663	308.5136	338.5049	381.0069	406.359	436.4114	537.8893	666.5154	770.3611	827.6149	837.4471	905.8324	955.9629	978.5775	1024.3983	1032.9098	1055.1546	1084.0361	1113.685	1118.4472	1172.1051	1181.4296	1259.3284	1282.303	1318.2907	1364.8058	1396.2062	1406.5322	1475.3839	1482.647	1488.4234	1493.8416	1522.5311	1734.2377	2979.9048	3033.6289	3038.3133	3096.2334	3102.9079	3109.326	3151.0034	3179.0287	3194.2062	3820.6807
CC(CN1CC1)=NO	CC(=NO)CN1CC1	
InChI=1S/C5H10N2O/c1-5(6-8)4-7-2-3-7/h8H,2-4H2,1H3	InChI=1S/C5H10N2O/c1-5(6-8)4-7-2-3-7/h8H,2-4H2,1H3
