19
gdb 2687	10.57506	0.79378	0.75556	0.1289	77.09	-0.2394	0.0648	0.3042	1545.7379	0.16945	-273.774103	-273.764541	-273.763597	-273.810299	31.904	
C	-0.0546149283	 1.5649533517	 0.0730592212	-0.385048
C	-0.0005094738	 0.0364410568	 0.0064767119	-0.160449
C	 0.7116955776	-0.4838197402	-1.2454604579	-0.148475
C	 0.7626480897	-2.0238934621	-1.3058611422	-0.354103
C	 1.4390062503	-2.5328073524	-2.4944481801	 0.026463
C	 2.0020325427	-2.9237173355	-3.4846665903	 0.10362
C	 2.6808500614	-3.4092549417	-4.6781869907	-0.496768
H	 0.9522949045	 1.9969362112	 0.0784012159	 0.114977
H	-0.5864528106	 1.9803100217	-0.7901524082	 0.114976
H	-0.5683937607	 1.9075201	 0.9767181696	 0.11159
H	 0.5064966245	-0.3518959476	 0.9000180912	 0.094765
H	-1.0209859479	-0.3684206089	 0.0379244552	 0.094766
H	 0.2076623088	-0.1090451916	-2.1445877385	 0.10368
H	 1.7355661178	-0.092325006	-1.2823364653	 0.10368
H	 1.2642740099	-2.4034806944	-0.4050454337	 0.121546
H	-0.2613320261	-2.4202131161	-1.2660018019	 0.121547
H	 2.7056276481	-4.5045148542	-4.705403884	 0.144943
H	 2.1787740563	-3.0688605814	-5.5908583415	 0.144145
H	 3.7172047159	-3.0556557994	-4.7212465107	 0.144144
13.8559	71.2536	77.597	101.6244	214.2214	217.392	250.0716	309.6087	375.8924	387.7713	507.406	732.5488	766.9064	788.7076	906.0825	930.9292	1004.7482	1054.118	1054.1467	1062.2996	1120.2792	1128.7147	1168.0973	1239.8849	1275.5575	1310.1998	1326.2741	1357.7647	1392.9721	1410.4886	1415.6986	1473.7493	1479.5404	1480.2478	1484.3904	1497.2013	1499.3158	1511.1783	2373.343	3004.8389	3011.192	3024.0406	3027.9902	3029.914	3032.7666	3038.0256	3074.4679	3083.109	3083.3722	3096.504	3101.5164
CCCCC#CC	CCCCC#CC	
InChI=1S/C7H12/c1-3-5-7-6-4-2/h3,5,7H2,1-2H3	InChI=1S/C7H12/c1-3-5-7-6-4-2/h3,5,7H2,1-2H3
