21
gdb 4034	3.60494	1.14669	0.966	0.616	78.27	-0.2384	0.0195	0.2579	1282.6275	0.185737	-366.238059	-366.227792	-366.226848	-366.273282	36.838	
C	-0.0851058894	 1.4634879368	 0.157504551	-0.389068
C	 0.1131678305	-0.051473525	 0.0456811348	-0.168175
C	 0.7875978659	-0.5129270176	-1.2714929535	-0.042723
C	 2.2287876643	-0.0062182673	-1.3952424239	-0.390427
C	 0.6720639356	-2.0198395997	-1.3995107314	 0.348764
C	-0.6839387417	-2.6378041453	-1.6269974001	-0.468513
N	 1.7445511559	-2.7072036528	-1.3010048815	-0.170176
O	 1.4896272285	-4.0869820772	-1.4111737107	-0.405679
H	 0.8665172411	 2.0025343942	 0.1687993261	 0.122128
H	-0.675935076	 1.8478108552	-0.681874381	 0.11272
H	-0.6165435453	 1.7171211811	 1.0801206224	 0.113365
H	 0.7180045586	-0.4131461723	 0.8870169101	 0.104393
H	-0.8633263084	-0.5410248589	 0.1401464607	 0.097277
H	 0.198071286	-0.0881838028	-2.0992591084	 0.076852
H	 2.6888487689	-0.3595699586	-2.3212114601	 0.119249
H	 2.2562090252	 1.086644143	-1.3951597373	 0.104744
H	 2.8439500531	-0.3689069008	-0.5672321785	 0.12599
H	-0.6504872935	-3.3017959379	-2.496086412	 0.14576
H	-0.9770378154	-3.2600557106	-0.7747969986	 0.144766
H	-1.4501862943	-1.876676022	-1.7867623983	 0.115678
H	 2.3749275904	-4.4590787015	-1.3435348701	 0.303077
54.4399	79.7919	111.378	178.349	211.6999	214.9463	266.7714	294.3872	312.5323	364.1912	377.8878	431.1955	476.7979	560.3222	657.3221	764.2461	796.6739	855.5579	959.1046	975.5113	988.6694	1024.011	1033.3228	1040.5538	1112.9528	1137.5785	1172.3169	1233.8808	1286.2188	1322.3682	1361.1063	1378.2176	1396.0239	1400.7182	1409.7908	1415.4939	1474.4075	1481.7313	1485.7211	1489.9015	1497.4364	1504.8767	1509.4277	1726.1123	2981.0985	3025.9661	3033.1714	3043.1342	3049.7759	3060.4808	3098.3062	3100.7151	3109.4142	3121.7244	3123.6296	3132.6143	3823.19
CCC(C)C(C)=NO	CC[C@@H](C)C(=NO)C	
InChI=1S/C6H13NO/c1-4-5(2)6(3)7-8/h5,8H,4H2,1-3H3	InChI=1S/C6H13NO/c1-4-5(2)6(3)7-8/h5,8H,4H2,1-3H3/t5-/m1/s1
