11
gdb 4630	6.96906	1.36247	1.13966	4.3022	62.35	-0.2232	-0.0304	0.1929	939.6014	0.072078	-397.419663	-397.412958	-397.412014	-397.450532	24.807	
O	-0.0188365015	-0.0244460733	 0.0026386222	-0.391547
C	-0.045898573	 1.1723004453	 0.0095687076	 0.491124
N	-1.1081066128	 2.043691244	 0.0292593513	-0.448181
C	-0.6574898256	 3.3741377565	 0.0304714305	 0.172171
C	 0.6887405792	 3.2925183003	 0.011180362	-0.123248
O	 1.0864512497	 1.9855771724	-0.0015595082	-0.196798
C	-1.5152843739	 4.4870753478	 0.0486899692	 0.281696
C	-2.2738171474	 5.4220597855	 0.0645132757	-0.445019
H	-2.0656580599	 1.7395609913	 0.0409466684	 0.284563
H	 1.4541246987	 4.0479098305	 0.0047189766	 0.167329
H	-2.9325544335	 6.2552243896	 0.0783729049	 0.207912
127.8953	147.8358	245.6721	411.8538	446.4979	464.1153	555.0443	563.8162	579.8167	639.7881	694.8798	749.5468	753.0318	770.8072	903.2352	1011.1516	1102.8843	1189.8584	1240.9377	1328.9369	1402.9752	1660.6335	1911.1858	2237.0173	3303.6483	3499.6384	3696.0203
O=C1NC(=CO1)C#C	O=c1[nH]c(co1)C#C	
InChI=1S/C5H3NO2/c1-2-4-3-8-5(7)6-4/h1,3H,(H,6,7)	InChI=1S/C5H3NO2/c1-2-4-3-8-5(7)6-4/h1,3H,(H,6,7)
