9
gdb 786	9.81669	3.7809	2.7296	1.2703	39.79	-0.2405	-0.0028	0.2377	431.818	0.064229	-317.408548	-317.403907	-317.402963	-317.436318	16.703	
O	 0.1203295278	 1.3310020623	 0.0887300834	-0.420734
C	 0.0729787185	-0.0119415788	 0.0680560604	 0.368917
N	 0.111392433	-0.7274388027	-1.0507243973	-0.306208
N	 0.0397990364	-1.981938632	-0.5925951876	-0.073582
N	-0.0408669974	-2.1284697203	 0.7171256245	-0.185206
C	-0.0219261561	-0.8757805429	 1.1748601139	-0.119091
H	 0.1839014244	 1.6363640817	-0.8246706318	 0.310329
H	 0.0472386095	-2.7705858057	-1.21704411	 0.294365
H	-0.074300136	-0.6508871416	 2.2265833445	 0.131211
338.9213	387.3282	416.8688	432.473	705.3269	716.843	733.2312	848.9226	985.8276	1030.041	1151.1947	1195.5461	1204.2912	1292.0085	1377.851	1450.8732	1547.6372	1606.9559	3286.2027	3683.0629	3801.7166
OC1=NNN=C1	Oc1n[nH]nc1	
InChI=1S/C2H3N3O/c6-2-1-3-5-4-2/h1H,(H2,3,4,5,6)	InChI=1S/C2H3N3O/c6-2-1-3-5-4-2/h1H,(H2,3,4,5,6)
