17
gdb 2946	6.08303	1.86038	1.53311	1.013	60.6	-0.252	0.0914	0.3434	834.2867	0.148817	-346.861837	-346.85444	-346.853496	-346.894088	25.885	
C	-0.0336748028	 1.545259799	 0.0150446495	-0.384091
C	-0.1565141241	 0.0200888852	 0.0381658627	-0.199679
C	 0.6166741806	-0.6072634483	 1.1819086796	 0.237009
O	 0.1043121763	-0.1741908976	 2.4355910722	-0.269156
C	 0.173005285	-1.270935068	 3.3412352836	-0.085715
C	 0.7487663352	-2.4215179797	 2.4910302477	-0.111451
O	 0.477858936	-2.0087492585	 1.1624511123	-0.248559
H	 1.0096797008	 1.8591039061	-0.10108225	 0.113894
H	-0.6023824512	 1.9688350948	-0.8175170921	 0.113827
H	-0.412524555	 1.9778893443	 0.9447583298	 0.136594
H	-1.2029841329	-0.2856102545	 0.1416570023	 0.108318
H	 0.220856222	-0.4126218623	-0.8951212093	 0.106552
H	 1.6910089815	-0.3399550196	 1.1253483169	 0.054725
H	 0.8134881928	-1.0258316394	 4.1970254326	 0.103017
H	-0.8352406895	-1.4924146709	 3.7105819765	 0.108644
H	 1.8317114992	-2.5315739646	 2.6541616684	 0.098117
H	 0.2648710363	-3.3850557459	 2.6639460273	 0.117953
48.7412	97.7826	165.6692	204.0438	258.0857	409.4011	481.0344	692.153	710.8394	782.4533	872.5142	888.9683	939.6832	952.7752	1004.9298	1053.7348	1075.8682	1113.7631	1143.768	1159.5838	1184.3374	1225.2159	1248.2816	1283.7605	1333.1985	1347.4647	1377.2448	1397.7891	1412.3737	1440.7523	1477.5187	1498.7424	1509.9883	1516.1774	1533.2568	2900.574	2989.149	3022.6433	3038.8742	3044.9576	3059.4782	3085.4022	3106.8713	3108.8564	3124.2535
CCC1OCCO1	CCC1OCCO1	
InChI=1S/C5H10O2/c1-2-5-6-3-4-7-5/h5H,2-4H2,1H3	InChI=1S/C5H10O2/c1-2-5-6-3-4-7-5/h5H,2-4H2,1H3
