14
gdb 2252	3.82335	3.15146	2.06423	2.1085	58.4	-0.2437	-0.0201	0.2236	649.5821	0.112905	-324.554067	-324.547542	-324.546597	-324.584366	24.025	
C	 0.0114650674	 1.5544250362	 0.0453445143	-0.494975
C	-0.0281604801	 0.0597217617	-0.0414534307	 0.207455
C	-0.8594004854	-0.8201113859	 0.8371519998	-0.273471
N	 0.5887535105	-0.9182417567	 0.9801957307	-0.146177
C	 1.015516703	-1.8287806818	-0.1418889646	-0.290067
C	 0.516188132	-0.7824453644	-1.1595908057	 0.362318
O	 0.7174139611	-0.5786180679	-2.322429873	-0.305304
H	 0.9695195681	 1.9435321301	-0.3116439071	 0.138811
H	-0.780527851	 1.9914040213	-0.5718012471	 0.140342
H	-0.1364803594	 1.8855209399	 1.0768292363	 0.135295
H	-1.352627666	-0.3235698265	 1.6681857488	 0.132891
H	-1.41192171	-1.6589784374	 0.4177407838	 0.121528
H	 2.103329445	-1.9307634657	-0.1783875016	 0.143356
H	 0.5514559547	-2.8190398328	-0.1229430539	 0.128001
120.8744	153.091	246.9338	303.5044	468.817	478.486	549.305	644.3021	677.3554	743.2444	852.9005	878.229	958.2097	995.6053	1038.536	1053.8921	1088.6077	1109.0386	1131.0567	1195.9229	1240.8898	1290.35	1360.9625	1413.6534	1462.3544	1479.983	1489.8021	1508.7978	1886.0005	3040.7902	3058.8197	3098.5579	3107.7717	3120.1259	3121.866	3190.984
CC12CN1CC2=O	C[C@]12CN1CC2=O	
InChI=1S/C5H7NO/c1-5-3-6(5)2-4(5)7/h2-3H2,1H3	InChI=1S/C5H7NO/c1-5-3-6(5)2-4(5)7/h2-3H2,1H3/t5-,6?/m1/s1
