15
gdb 3536	6.32652	3.06022	2.71931	0.0863	64.66	-0.2185	0.0084	0.227	559.9461	0.127653	-271.323381	-271.318586	-271.317642	-271.351462	20.546	
C	-0.0684862721	 1.5670760036	 0.0097695657	-0.247464
C	 1.4507011502	 1.2848942333	-0.0053819976	-0.033901
C	 1.2481996016	 0.1078255388	 1.0217623639	-0.04738
C	 2.2320209758	-0.9877110436	 0.643018012	-0.108637
C	 2.2200370617	-0.9805063073	-0.6921955683	-0.10864
C	 1.2296884559	 0.1189632855	-1.0413760697	-0.04738
C	 0.0516673608	 0.0265367909	 0.0003750432	-0.033901
H	-0.4757327065	 2.0240001759	 0.9166577189	 0.088083
H	-0.4918871229	 2.0337174659	-0.8846883245	 0.088082
H	 2.2734052929	 2.0059015504	-0.0088725744	 0.066127
H	 1.0477686633	 0.3354574736	 2.0698952493	 0.059484
H	 2.7937127365	-1.6090733563	 1.3264608068	 0.099958
H	 2.7693179825	-1.5943959244	-1.3922763204	 0.099958
H	 1.0105042714	 0.3578846593	-2.0832237177	 0.059484
H	-0.7521673811	-0.7154503655	 0.0035830629	 0.066127
389.1985	413.3759	502.8938	676.5213	686.1678	774.9664	787.2155	800.7763	879.1892	893.7946	905.3893	913.0693	935.0231	937.5419	990.735	1011.5197	1055.8508	1071.3034	1081.2065	1125.6972	1140.4707	1153.9657	1193.6219	1208.2194	1228.4355	1255.3514	1260.4406	1320.5463	1332.8196	1512.6243	1631.899	3041.1278	3069.4811	3074.339	3099.2927	3105.3727	3110.4198	3218.0071	3245.2695
C1C2C3C=CC2C13	C1[C@H]2[C@@H]3C=C[C@H]2[C@H]13	
InChI=1S/C7H8/c1-2-5-6-3-7(5)4(1)6/h1-2,4-7H,3H2	InChI=1S/C7H8/c1-2-5-6-3-7(5)4(1)6/h1-2,4-7H,3H2/t4-,5+,6-,7+
