13
gdb 562	9.86113	2.62587	2.15831	2.0739	52.85	-0.2475	0.0325	0.28	592.3635	0.108198	-286.484121	-286.477884	-286.47694	-286.514266	21.051	
C	-0.0388042446	 1.4432290019	-0.1238294665	-0.338129
N	-0.0436698791	-0.0032236051	-0.2893799334	-0.319488
C	-1.0523336995	-0.654379282	 0.0528750314	 0.466902
C	-1.4394342537	-2.1185426043	 0.0435955685	-0.369764
C	-2.7589635478	-1.6007749685	 0.6500833813	-0.075654
O	-2.2593392214	-0.2316985622	 0.6016897185	-0.26174
H	 0.8027545318	 1.7275985185	 0.5174305917	 0.126599
H	 0.1310464004	 1.9148050815	-1.0980457264	 0.126614
H	-0.9614112644	 1.8495180531	 0.306823809	 0.12575
H	-1.5106095356	-2.5670227358	-0.9486588007	 0.137852
H	-0.8326728052	-2.7566168521	 0.6881665785	 0.137852
H	-3.6536164616	-1.7130363178	 0.0324181085	 0.121602
H	-2.9718710293	-1.9036598771	 1.6784063096	 0.121602
69.5525	146.0628	222.6321	236.7012	507.9276	558.7312	728.7492	790.9952	903.5166	963.1272	994.5965	1055.828	1067.9064	1104.7579	1134.6119	1159.982	1182.3608	1200.8767	1243.7736	1350.4056	1440.4993	1468.9058	1494.7718	1497.1511	1523.9012	1853.2138	3017.3264	3061.0388	3082.1692	3087.0436	3087.9399	3113.0086	3143.1916
CN=C1CCO1	CN=C1CCO1	
InChI=1S/C4H7NO/c1-5-4-2-3-6-4/h2-3H2,1H3	InChI=1S/C4H7NO/c1-5-4-2-3-6-4/h2-3H2,1H3
