14
gdb 464	6.77781	3.51016	2.61055	1.4505	55.	-0.2302	0.0182	0.2484	531.8706	0.120101	-270.437636	-270.4318	-270.430856	-270.466917	21.19	
C	 0.1007249865	 1.5429113711	-0.0560240624	-0.386353
C	-0.0480282767	 0.0261200305	 0.0662719116	 0.106684
O	 0.5311037887	-0.6149658859	-1.0777606615	-0.27584
C	 1.4787786129	-1.5982099264	-0.6759563929	-0.111097
C	 1.540628658	-1.4952888413	 0.8222838743	-0.090951
C	 0.6715109933	-0.5841033635	 1.2416341358	-0.086733
H	 1.1578496169	 1.8240777289	-0.0658556824	 0.11874
H	-0.3614905562	 1.8919237728	-0.9837266768	 0.125587
H	-0.3897175456	 2.0475069403	 0.7833281472	 0.108977
H	-1.1242454643	-0.21797233	 0.0999516742	 0.078656
H	 1.155337093	-2.5982872496	-1.0096898729	 0.101752
H	 2.449373943	-1.398865509	-1.156404039	 0.104512
H	 2.202095197	-2.0981290586	 1.4316359738	 0.103944
H	 0.4757251436	-0.2907851093	 2.265365571	 0.102122
92.5282	233.209	277.1545	363.7893	510.2189	701.2569	753.3088	793.9965	840.2488	889.7966	955.9001	960.2782	1013.9506	1046.177	1086.7113	1111.9688	1132.1852	1135.4754	1200.3941	1309.0259	1356.1065	1374.5668	1386.1346	1399.8579	1485.5762	1495.3062	1522.4353	1692.4979	2944.3723	2964.906	2988.1435	3036.4375	3109.8295	3120.8541	3204.2889	3229.2147
CC1OCC=C1	C[C@H]1OCC=C1	
InChI=1S/C5H8O/c1-5-3-2-4-6-5/h2-3,5H,4H2,1H3	InChI=1S/C5H8O/c1-5-3-2-4-6-5/h2-3,5H,4H2,1H3/t5-/m1/s1
