12
gdb 633	7.06864	3.21566	2.41699	3.0016	47.01	-0.2459	0.0373	0.2831	527.9789	0.097247	-302.558699	-302.552674	-302.55173	-302.588453	21.345	
N	-0.0910539543	 1.2906548672	 0.0010464694	-0.531139
C	-0.0573738345	-0.0810240762	 0.0709761512	 0.400191
O	 0.8856399908	-0.7542096121	-0.2847340818	-0.360025
N	-1.245391483	-0.6143069366	 0.6244510906	-0.117857
C	-2.4594873187	-0.6950948449	-0.1922682525	-0.23037
C	-1.6841646738	-1.9183351629	 0.1690950728	-0.206601
H	 0.7977513682	 1.7363164091	-0.1600708979	 0.263361
H	-0.7427731405	 1.7802731038	 0.5922487818	 0.26037
H	-3.3878217622	-0.45597531	 0.3190484571	 0.122318
H	-2.3961481281	-0.3458004599	-1.2196450624	 0.13382
H	-1.0843701281	-2.3878666218	-0.6047594141	 0.143292
H	-2.0506115358	-2.5827444757	 0.9457924759	 0.122639
62.0031	237.0942	257.0698	432.3333	469.1679	527.8004	600.2353	732.2839	785.0676	829.9518	936.2745	981.7164	1043.0793	1111.0528	1122.3798	1134.3175	1174.8712	1182.9101	1284.3649	1387.4908	1495.6797	1520.8818	1613.7841	1810.6574	3108.921	3122.0077	3194.4833	3214.5327	3594.5575	3719.5765
NC(=O)N1CC1	NC(=O)N1CC1	
InChI=1S/C3H6N2O/c4-3(6)5-1-2-5/h1-2H2,(H2,4,6)	InChI=1S/C3H6N2O/c4-3(6)5-1-2-5/h1-2H2,(H2,4,6)
