15
gdb 1992	6.69202	1.6482	1.41819	3.7334	57.85	-0.2387	0.0552	0.2939	851.1394	0.125493	-341.85849	-341.850857	-341.849913	-341.890788	27.301	
N	-0.2189223924	 1.3397273723	 0.133513268	-0.56461
C	-0.1942412158	-0.0357960404	 0.3558510268	 0.445045
O	 0.5700516487	-0.5567523986	 1.1442842767	-0.386618
N	-1.1561545372	-0.7329216963	-0.3420005301	-0.343064
C	-1.2085430422	-2.1614584374	-0.3261533644	 0.066127
C	-1.6901962594	-2.856560367	 0.9165842076	-0.230727
C	-2.5684286237	-2.8116106067	-0.3075964842	-0.294417
H	 0.6093918128	 1.7941675534	 0.4866862019	 0.259385
H	-0.5111010336	 1.6740554776	-0.7724979355	 0.2407
H	-1.706160943	-0.2517357115	-1.0348469021	 0.235657
H	-0.4269424823	-2.6643303917	-0.8920945592	 0.096484
H	-1.2139437749	-3.7921573714	 1.1847190233	 0.118484
H	-1.9565600195	-2.2253949652	 1.7547919304	 0.129341
H	-3.433305579	-2.1574358711	-0.2806674703	 0.112578
H	-2.7057047485	-3.715245066	-0.8904772689	 0.115635
49.5675	86.5469	158.6009	268.0796	361.3259	378.9886	440.2449	504.8073	535.2327	658.1874	765.6731	778.8317	826.5777	855.3489	928.0317	997.5601	1044.1516	1068.1412	1075.7562	1099.5653	1129.2214	1192.516	1207.1946	1266.7417	1319.889	1405.7269	1461.5391	1498.0573	1528.1321	1628.3518	1806.8426	3116.8981	3135.8921	3153.2801	3219.7203	3244.3825	3573.4166	3627.8284	3688.3025
NC(=O)NC1CC1	NC(=O)NC1CC1	
InChI=1S/C4H8N2O/c5-4(7)6-3-1-2-3/h3H,1-2H2,(H3,5,6,7)	InChI=1S/C4H8N2O/c5-4(7)6-3-1-2-3/h3H,1-2H2,(H3,5,6,7)
