14
gdb 794	6.11744	1.42368	1.28103	2.0372	58.32	-0.2459	-0.0382	0.2077	906.7981	0.110176	-361.684892	-361.676647	-361.675703	-361.718785	27.474	
C	-0.1503384345	 1.5634671402	-0.0354470682	-0.479048
C	-0.0269110721	 0.0649507	-0.0377779431	 0.343614
C	-0.0493903624	-0.6680757344	 1.2848466462	-0.337814
C	 1.2636357997	-0.4366755359	 2.019684191	 0.151187
O	 1.3888120205	 0.267987139	 2.9867622073	-0.232189
N	 0.1162241346	-0.6665060265	-1.0772595071	-0.159489
O	 0.1323555863	 0.0911345764	-2.2551377623	-0.392953
H	 0.4451479618	 2.0026201243	-0.8378515224	 0.154416
H	-1.193345942	 1.8572698007	-0.2049851089	 0.147184
H	 0.1611778203	 1.9758748601	 0.9272148054	 0.143039
H	-0.8664447405	-0.3046550418	 1.9156164841	 0.127881
H	-0.1658257319	-1.7387810737	 1.0925117913	 0.133571
H	 2.1346587457	-0.9580198589	 1.5634717216	 0.091472
H	 0.2624993045	-0.5847047496	-2.9288448349	 0.309129
42.0657	52.7344	81.5734	197.1444	301.4822	347.5767	353.3702	416.5183	487.1019	551.2368	617.5404	797.297	879.7281	971.4327	987.9221	1017.2009	1074.2858	1084.8439	1190.2266	1264.4261	1286.95	1394.8167	1404.0652	1416.8129	1456.6913	1479.6554	1486.5	1724.3122	1830.6858	2887.1733	3039.4404	3051.3333	3105.0362	3117.0199	3145.1124	3820.145
CC(CC=O)=NO	CC(=NO)CC=O	
InChI=1S/C4H7NO2/c1-4(5-7)2-3-6/h3,7H,2H2,1H3	InChI=1S/C4H7NO2/c1-4(5-7)2-3-6/h3,7H,2H2,1H3
