16
gdb 4361	3.71545	1.82096	1.22498	1.1655	77.1	-0.1856	0.0209	0.2065	953.5209	0.133618	-342.854042	-342.846856	-342.845912	-342.884791	29.06	
N	-0.0057139532	 1.4067393997	 0.1661287015	-0.592173
C	 0.001039193	 0.0128827792	 0.0490698799	 0.345936
C	-1.2024987147	-0.7062804383	 0.0506542423	-0.21757
C	-1.1686808719	-2.0944747655	-0.0030854765	-0.068132
C	 0.0329859783	-2.7901325056	-0.0593826304	-0.217569
C	 1.2413172558	-2.0790577478	-0.063079311	 0.345939
N	 2.4607260076	-2.7538070259	-0.1827924078	-0.592173
C	 1.2128426041	-0.6822298282	-0.0082998178	-0.266649
H	 0.8086516957	 1.8632119941	-0.2193585828	 0.241852
H	-0.854630797	 1.8452695063	-0.1609061278	 0.243353
H	-2.1487049997	-0.1770958892	 0.0994724231	 0.071985
H	-2.1025675979	-2.6482707417	-0.0010406511	 0.086394
H	 0.0432930009	-3.8743061282	-0.1061529518	 0.071985
H	 2.4393771399	-3.7084100582	 0.1461390379	 0.243354
H	 3.253137079	-2.2574644599	 0.1991582078	 0.241852
H	 2.1481007001	-0.1276196407	-0.0103463056	 0.061617
216.5752	226.2283	294.7081	301.1875	318.7428	448.3905	453.9786	527.4908	546.0356	590.8213	621.2176	674.0823	707.3706	762.9681	772.0023	828.9859	846.163	941.6535	971.7724	1003.4424	1078.3459	1129.3083	1141.0618	1188.9819	1232.1439	1348.9408	1354.127	1366.2513	1516.2021	1535.7102	1629.8206	1648.5361	1659.9139	1663.4229	3149.9689	3162.7822	3174.2134	3188.204	3558.7729	3559.0843	3656.0229	3656.0944
NC1=CC=CC(N)=C1	Nc1cccc(N)c1	
InChI=1S/C6H8N2/c7-5-2-1-3-6(8)4-5/h1-4H,7-8H2	InChI=1S/C6H8N2/c7-5-2-1-3-6(8)4-5/h1-4H,7-8H2
