13
gdb 4408	3.84252	2.09431	1.35609	3.5932	66.47	-0.2136	-0.0313	0.1823	838.3941	0.09765	-394.829842	-394.823152	-394.822207	-394.860545	25.519	
N	 0.0721365606	 1.3140406462	 0.1218150061	-0.556736
C	-0.0497181536	-0.0328224179	 0.0424622496	 0.50717
N	-1.2038796876	-0.6143471876	 0.0243687258	-0.367794
C	-1.1634825117	-1.991209547	-0.0041342598	-0.008314
C	-0.0264615963	-2.7219216893	-0.0218115439	-0.164378
C	 1.2491584597	-2.0542733013	-0.0125229439	 0.379552
N	 2.390519762	-2.601812464	-0.0318298754	-0.538688
O	 1.1551284086	-0.6385799913	 0.0202074716	-0.260545
H	 0.959858488	 1.7301507464	-0.1014221804	 0.273835
H	-0.7646029636	 1.8491591593	-0.0371862146	 0.279751
H	-2.1354549595	-2.47514756	-0.0139341802	 0.116889
H	-0.0220662598	-3.8022171811	-0.0459129883	 0.119686
H	 3.1351303434	-1.9054654524	-0.0173503165	 0.219571
137.1815	180.1987	321.2692	340.0868	401.6141	474.5287	504.4883	527.3268	583.317	697.4899	766.5869	770.0809	815.4586	851.7334	909.3896	976.6336	1003.1567	1022.161	1084.816	1144.8023	1241.3525	1314.242	1421.108	1439.9578	1585.262	1632.5054	1671.234	1764.5688	3177.8904	3240.9621	3498.9323	3616.6962	3746.369
NC1=NC=CC(=N)O1	NC1=NCC=C([NH])O1	
InChI=1S/C4H5N3O/c5-3-1-2-7-4(6)8-3/h1-2,5H,(H2,6,7)	InChI=1S/C4H6N3O/c5-3-1-2-7-4(6)8-3/h1,5H,2H2,(H2,6,7)
