19
gdb 4166	2.42511	1.68961	1.0959	0.8239	75.58	-0.2298	0.0184	0.2482	1127.4889	0.164357	-365.014603	-365.005687	-365.004743	-365.04839	32.849	
C	-0.2755980861	 1.4766016768	-0.2004930567	-0.373461
C	 0.250040679	 0.0405258836	-0.1687686379	-0.264844
C	 0.8355368646	-0.4627729214	-1.4696588538	 0.357519
N	 0.6959514364	 0.3044665289	-2.4861190778	-0.189612
O	 1.2606704387	-0.2307207405	-3.6592771614	-0.407157
C	 1.5105071773	-1.7846736143	-1.5206044584	-0.063096
C	 2.6090629378	-2.1465422242	-0.5312731713	-0.264293
C	 1.2886602522	-2.8513329043	-0.4665231131	-0.275984
H	 0.5176317881	 2.1808007211	-0.4641212031	 0.125526
H	-1.069165422	 1.5891274154	-0.9423236301	 0.130883
H	-0.6734504579	 1.7522128072	 0.7807647191	 0.101716
H	 1.009501363	-0.0559762282	 0.619376791	 0.109953
H	-0.5588844393	-0.6414704076	 0.1273491719	 0.117396
H	 1.0436155517	 0.4468559378	-4.3072107697	 0.302857
H	 1.6678645051	-2.1429241666	-2.5286657109	 0.116522
H	 3.4701962834	-2.675140629	-0.9239170881	 0.121003
H	 2.8441544396	-1.4329432732	 0.2502777443	 0.119532
H	 0.6347705424	-2.626226011	 0.3676999462	 0.117817
H	 1.228411796	-3.8773792005	-0.81169227	 0.117721
58.374	81.7777	199.8438	213.1919	232.7495	265.7769	300.3763	342.9148	399.8769	504.1737	599.8856	609.6436	716.7879	789.5921	795.6003	836.7853	903.1318	941.1518	970.9117	997.4769	1051.3942	1062.9952	1081.9966	1102.2686	1110.347	1144.9697	1202.2446	1219.7282	1264.4727	1292.1866	1356.6315	1388.8612	1410.6317	1420.6673	1467.0073	1479.2783	1491.5186	1501.8037	1504.7622	1716.1193	3011.1511	3034.3063	3049.236	3118.2757	3131.6051	3139.3661	3143.4814	3207.3293	3217.9096	3234.1679	3827.663
CCC(=NO)C1CC1	CCC(=NO)C1CC1	
InChI=1S/C6H11NO/c1-2-6(7-8)5-3-4-5/h5,8H,2-4H2,1H3	InChI=1S/C6H11NO/c1-2-6(7-8)5-3-4-5/h5,8H,2-4H2,1H3
