11
gdb 3941	7.36164	2.24151	1.72172	2.0759	49.13	-0.1974	0.0457	0.2431	657.7641	0.080647	-372.765028	-372.759054	-372.75811	-372.794502	22.518	
O	-0.0775238171	 1.2925085675	 0.0369213883	-0.413193
C	 0.0341841153	-0.0377520608	 0.006335755	 0.496894
N	 1.1298105831	-0.7155291937	-0.0006116199	-0.337964
N	 0.6792669986	-2.0488900362	-0.1174203821	-0.314722
C	-0.7071263424	-2.1492792976	-0.0170458847	 0.437965
N	-1.5203863084	-3.1284837889	 0.0423829751	-0.596086
N	-1.0945477287	-0.8053534498	-0.0357882001	-0.357442
H	 0.8189990682	 1.6533197728	 0.0449340687	 0.321302
H	 1.2874853887	-2.7494679243	 0.2728776879	 0.26583
H	-1.0290424136	-4.0186597795	 0.032820445	 0.211211
H	-2.0485985538	-0.4934688195	 0.0060836068	 0.286204
162.6138	346.5867	354.9031	396.8964	421.0337	441.4702	512.9352	666.1921	684.5077	715.8279	738.8132	773.4381	999.7796	1029.8888	1072.3468	1088.5503	1217.5012	1311.8574	1350.3475	1380.7895	1582.1484	1709.3519	1764.9774	3525.7129	3660.3499	3697.0971	3794.0306
OC1=NNC(=N)N1	OC1=NN[C@H]([NH])N1	
InChI=1S/C2H4N4O/c3-1-4-2(7)6-5-1/h(H4,3,4,5,6,7)	InChI=1S/C2H5N4O/c3-1-4-2(7)6-5-1/h1,3,5H,(H2,4,6,7)/t1-/m1/s1
