11
gdb 2115	3.83508	3.46633	1.84132	4.9769	53.59	-0.2347	-0.0951	0.1396	628.4655	0.078667	-343.291812	-343.286071	-343.285127	-343.321538	20.753	
O	 0.0038335968	 0.0084969051	 0.0040512609	-0.268701
C	-0.0338475639	 1.2066421624	 0.0109013321	 0.312898
C	-1.2722514873	 2.1047674907	 0.0321936259	-0.377993
C	-0.6836289957	 3.4926902576	 0.0316100026	-0.058696
C	 0.6590696737	 3.518175838	 0.0139060268	-0.169358
C	 1.2089912322	 2.1505703571	-0.0005471189	 0.291399
O	 2.357397929	 1.7836273551	-0.0177187933	-0.297449
H	-1.9105958887	 1.9114221491	-0.8384259965	 0.15319
H	-1.8870015896	 1.9022306464	 0.917585159	 0.153197
H	-1.3132955022	 4.3762362273	 0.0445638608	 0.129825
H	 1.2836862957	 4.4020072012	 0.0102177206	 0.131688
99.4845	274.3696	314.2628	403.6671	529.8463	612.7879	702.8631	708.3793	736.6969	759.0268	955.6481	967.3148	1018.9075	1033.6723	1121.2428	1149.7964	1196.3393	1284.1096	1373.2395	1437.7299	1636.5044	1821.9106	1866.3268	3039.4188	3070.7672	3188.5152	3227.7835
O=C1CC=CC1=O	O=C1CC=CC1=O	
InChI=1S/C5H4O2/c6-4-2-1-3-5(4)7/h1-2H,3H2	InChI=1S/C5H4O2/c6-4-2-1-3-5(4)7/h1-2H,3H2
