17
gdb 4841	4.3199	1.49797	1.14667	1.1899	73.94	-0.172	0.042	0.214	1055.0073	0.142282	-363.892526	-363.884222	-363.883277	-363.925631	29.875	
C	-0.1393877557	 1.4332442654	-0.2309145441	-0.329651
N	 0.3669532308	 0.0988479152	 0.0822168414	-0.386381
C	 0.7233393838	-0.7330932059	-0.9658670662	 0.404679
C	 0.6231513589	-2.0777948699	-1.1695802339	-0.291111
C	 1.2940965432	-2.3300712512	-2.4164209097	-0.246631
C	 1.735977456	-1.1378182262	-2.8864898205	 0.345446
C	 2.4618517074	-0.7047839409	-4.1067656217	-0.490831
O	 1.3904547331	-0.1436636961	-1.9906618488	-0.211654
H	 0.6156836095	 1.9812951969	-0.7972711164	 0.150575
H	-1.070456232	 1.4252965944	-0.8183591915	 0.111906
H	-0.3181203155	 1.9678280661	 0.70499777	 0.122877
H	-0.2067199624	-0.3930419403	 0.7524694543	 0.240476
H	 0.1370138198	-2.7926368427	-0.5251879056	 0.089825
H	 1.4184476682	-3.2855470807	-2.9029830938	 0.098865
H	 1.8729572813	 0.00098673	-4.7057341734	 0.129035
H	 3.4119656302	-0.2121492383	-3.866482827	 0.130887
H	 2.6804012931	-1.5755426157	-4.7295854329	 0.131688
55.3151	136.2812	151.0884	179.2374	213.544	299.7182	351.8496	465.8903	587.2201	618.1601	651.5983	694.1564	734.9641	745.4643	810.5642	954.5508	983.2177	1010.0973	1036.8796	1065.0384	1077.6798	1148.1449	1153.5171	1234.1802	1239.6656	1309.0956	1390.5928	1416.6093	1450.0716	1470.2678	1481.8993	1490.3278	1497.6869	1516.0357	1640.6755	1666.8042	2984.9746	3018.5086	3062.8824	3094.4836	3122.5681	3138.6784	3246.1389	3261.3668	3596.9389
CNC1=CC=C(C)O1	CNc1ccc(C)o1	
InChI=1S/C6H9NO/c1-5-3-4-6(7-2)8-5/h3-4,7H,1-2H3	InChI=1S/C6H9NO/c1-5-3-4-6(7-2)8-5/h3-4,7H,1-2H3
