12
gdb 4327	4.19008	1.89842	1.30649	3.922	59.66	-0.2346	-0.0396	0.195	838.593	0.0869	-414.741254	-414.73518	-414.734236	-414.771472	23.252	
O	 0.0139288332	 1.32611209	 0.0078406204	-0.403897
C	-0.0093651102	-0.0148432465	 0.0009193143	 0.450852
C	-1.2013543021	-0.6853271357	 0.0038942732	-0.348991
C	-1.2160977062	-2.1205568386	-0.0036397222	 0.433959
O	-2.1648536707	-2.8798891185	-0.0022677587	-0.391513
N	 0.1106764069	-2.6601321337	-0.0135978422	-0.336775
C	 1.2252079682	-1.9080769379	-0.0157289372	 0.118347
N	 1.2260359482	-0.6097326567	-0.0089500993	-0.368126
H	 0.9462718687	 1.5834819244	 0.0041007587	 0.304736
H	-2.1440368606	-0.1567504592	 0.0118549548	 0.125483
H	 0.1645394166	-3.6698040908	-0.0191456984	 0.270496
H	 2.1726717879	-2.440930597	-0.0236533173	 0.145429
176.4507	198.3279	372.4794	438.451	487.3834	529.8201	555.369	560.1277	680.4564	754.4899	767.8966	788.7233	860.6755	936.5658	971.9911	990.4533	1161.2241	1188.5299	1226.1493	1289.6999	1384.5287	1454.5791	1478.7808	1608.1469	1689.6121	1808.7041	3170.6489	3237.8758	3604.3254	3772.4205
OC1=CC(=O)NC=N1	Oc1cc(=O)[nH]cn1	
InChI=1S/C4H4N2O2/c7-3-1-4(8)6-2-5-3/h1-2H,(H2,5,6,7,8)	InChI=1S/C4H4N2O2/c7-3-1-4(8)6-2-5-3/h1-2H,(H2,5,6,7,8)
