16
gdb 2777	4.1174	2.27584	1.57966	3.4796	61.38	-0.2443	0.0362	0.2804	794.2417	0.137127	-325.805865	-325.798451	-325.797507	-325.837512	26.418	
C	-0.1041301064	 1.5613445539	-0.0220952745	-0.384175
C	 0.0933604583	 0.0442292915	 0.0713140579	-0.193748
C	 0.7386623461	-0.5326078728	-1.1867406517	-0.124619
C	 0.8038081662	-2.0844195315	-1.3372147772	-0.187447
N	-0.0180684472	-1.936654701	-2.541176491	-0.319038
C	-0.160342177	-0.5733241307	-2.453270766	 0.428001
O	-0.7732557294	 0.2291662788	-3.1076982183	-0.3657
H	 0.8579118855	 2.077905942	-0.1121806166	 0.112817
H	-0.703691692	 1.8179948608	-0.8994040022	 0.152913
H	-0.6077610855	 1.9470222353	 0.8693045765	 0.110124
H	 0.7158515915	-0.2034557884	 0.940511981	 0.098211
H	-0.8749282063	-0.4467948411	 0.2343801597	 0.101889
H	 1.6987540116	-0.0470823168	-1.38857924	 0.09912
H	 1.7979930392	-2.5043390266	-1.5193912781	 0.111421
H	 0.3147833624	-2.6371712277	-0.5275988454	 0.110981
H	-0.4376923168	-2.6134348058	-3.161189754	 0.24925
90.3729	119.2054	177.0505	226.9938	269.7965	371.3547	457.2245	494.3842	702.2265	755.3835	771.8429	835.7776	895.5358	974.8337	985.9938	1009.2324	1089.7221	1104.7415	1153.5022	1174.4562	1181.6021	1211.9303	1281.4228	1292.0304	1338.2906	1377.7415	1395.2427	1414.405	1489.6734	1499.0734	1512.7064	1527.0937	1883.4104	3016.6387	3035.3909	3036.841	3047.1048	3068.1613	3084.8382	3102.3979	3126.3685	3609.7421
CCC1CNC1=O	CC[C@H]1CNC1=O	
InChI=1S/C5H9NO/c1-2-4-3-6-5(4)7/h4H,2-3H2,1H3,(H,6,7)	InChI=1S/C5H9NO/c1-2-4-3-6-5(4)7/h4H,2-3H2,1H3,(H,6,7)/t4-/m0/s1
