11
gdb 2123	3.75597	3.41138	1.83622	5.1237	47.22	-0.2572	-0.085	0.1722	631.3048	0.078793	-380.438011	-380.432067	-380.431123	-380.468406	20.617	
O	-0.0123401066	 0.0145427441	-0.275548057	-0.259769
C	-0.05231613	 1.1955770764	-0.0837412592	 0.282768
C	-1.2589339599	 2.0997288295	 0.0793597389	-0.355995
C	-0.658694535	 3.511136764	-0.002022953	-0.088789
O	 0.7739266033	 3.3812496241	 0.1585035309	-0.213121
C	 1.1941883337	 2.0995751752	 0.0593432121	 0.345546
O	 2.3386386388	 1.7632626868	 0.0942170815	-0.305843
H	-2.0189796384	 1.8962983488	-0.6771117428	 0.156626
H	-1.7057424851	 1.9031233659	 1.0602174605	 0.160834
H	-0.8428972078	 3.9823568379	-0.9717968137	 0.138147
H	-1.0105808228	 4.1818065974	 0.7834870618	 0.139596
69.7352	148.6315	328.9243	389.0766	551.2459	609.9657	649.1572	703.4107	743.2781	837.7418	968.7772	1037.6894	1046.4978	1059.4872	1200.0796	1222.4682	1242.4795	1274.2616	1406.22	1446.1953	1525.4548	1871.7743	1885.895	3059.0738	3064.6018	3115.4209	3128.4033
O=C1CCOC1=O	O=C1CCOC1=O	
InChI=1S/C4H4O3/c5-3-1-2-7-4(3)6/h1-2H2	InChI=1S/C4H4O3/c5-3-1-2-7-4(3)6/h1-2H2
