16
gdb 4767	6.4383	1.25835	1.072	2.9029	68.05	-0.2052	0.0386	0.2438	1084.7783	0.131241	-379.963948	-379.955772	-379.954828	-379.997011	29.036	
C	 0.0589472912	 1.4829606669	 0.0262650034	-0.488387
C	 0.0029567347	-0.0094333068	-0.0189418063	 0.277577
C	-0.189854288	-0.8264045613	-1.1042495256	-0.191842
N	-0.161146736	-2.1136991261	-0.6095499001	-0.257483
C	 0.0561765851	-2.0232182663	 0.7283834716	 0.349878
C	 0.1152218658	-3.2399001018	 1.5962468244	-0.191263
O	 0.3461354117	-4.3611020679	 0.7495479503	-0.430466
N	 0.1585811228	-0.7738752125	 1.121795455	-0.364415
H	 1.0172131137	 1.8296998437	 0.4282250679	 0.129986
H	-0.0676941386	 1.9119925688	-0.9716287907	 0.113466
H	-0.7255960746	 1.8893528377	 0.6741470073	 0.128928
H	-0.3323169657	-0.619896408	-2.1520015428	 0.119812
H	-0.2247362372	-2.9803342723	-1.1165824195	 0.270928
H	 0.9131497918	-3.1100416011	 2.3404321139	 0.123697
H	-0.8310603117	-3.3527673602	 2.1486304309	 0.113271
H	 0.208107315	-5.1606587328	 1.2642377203	 0.296313
50.1563	111.1734	168.9833	199.3634	238.7969	304.1066	329.1953	475.8443	573.8909	648.6763	666.6819	700.9147	722.4615	736.3683	988.7705	1006.8924	1016.5605	1035.431	1065.1724	1083.3525	1107.3672	1200.4542	1226.9411	1261.7861	1291.1504	1367.8697	1415.4463	1443.5739	1476.1671	1478.4828	1497.9201	1514.802	1574.6103	1608.8396	2976.1169	3022.6426	3031.8882	3084.9318	3112.8826	3271.6227	3673.9778	3845.9611
CC1=CNC(CO)=N1	Cc1c[nH]c(CO)n1	
InChI=1S/C5H8N2O/c1-4-2-6-5(3-8)7-4/h2,8H,3H2,1H3,(H,6,7)	InChI=1S/C5H8N2O/c1-4-2-6-5(3-8)7-4/h2,8H,3H2,1H3,(H,6,7)
