15
gdb 2241	4.71985	2.80392	2.25394	1.1156	56.16	-0.2269	0.0924	0.3193	635.958	0.125137	-345.632414	-345.626092	-345.625148	-345.662221	24.05	
C	-0.126319941	 1.5731708337	 0.0570390933	-0.466257
C	 0.1251912999	 0.0951031924	 0.0459906183	 0.410193
C	-0.7525786509	-0.920456743	 0.7627362525	-0.393222
C	 0.7101582229	-0.740983064	 1.1367195517	 0.038075
O	 1.6552507617	-1.5985105543	 0.5468470647	-0.25582
C	 1.402755118	-1.5647983202	-0.8471128191	 0.011079
O	 0.7508542125	-0.3459991603	-1.1443953459	-0.290708
H	 0.8028385681	 2.1218025804	-0.1250044204	 0.130169
H	-0.8468599405	 1.8516446065	-0.7190040738	 0.131066
H	-0.5330157545	 1.8839383043	 1.0231214605	 0.12033
H	-1.4829174134	-0.525050663	 1.4612371601	 0.116928
H	-1.0647326296	-1.8228969947	 0.2489942014	 0.123829
H	 1.0230102129	-0.383056026	 2.1095997755	 0.110902
H	 2.352841853	-1.6120512818	-1.3893213059	 0.120306
H	 0.7677381809	-2.4182246799	-1.1370725429	 0.093129
197.8616	200.2585	233.4969	315.5381	396.7314	457.8121	620.0799	733.7085	736.8897	829.0023	849.9656	922.1502	946.1885	973.9357	1014.2818	1024.1845	1071.3607	1099.2409	1128.6534	1152.349	1163.5592	1219.5331	1250.9177	1292.1094	1388.9881	1422.9016	1436.9082	1473.7459	1480.0996	1503.5187	1553.2006	2959.6432	3038.4657	3069.2744	3104.4689	3119.9379	3132.8726	3192.6163	3222.1918
CC12CC1OCO2	C[C@]12C[C@H]1OCO2	
InChI=1S/C5H8O2/c1-5-2-4(5)6-3-7-5/h4H,2-3H2,1H3	InChI=1S/C5H8O2/c1-5-2-4(5)6-3-7-5/h4H,2-3H2,1H3/t4-,5+/m1/s1
