12
gdb 4452	3.60408	1.90277	1.25373	4.1263	52.32	-0.1962	0.0461	0.2423	873.6376	0.083364	-451.837298	-451.829277	-451.828333	-451.870731	27.537	
N	 0.1777314211	 1.4627898234	 0.0172452363	-0.611023
C	 0.0050307233	 0.0722221286	 0.0073359065	 0.111335
C	-1.053624425	-0.74791344	-0.0531258577	 0.377137
O	-2.3672300011	-0.4875392822	-0.1282202484	-0.427155
O	-0.670235726	-2.0616678362	-0.0311307347	-0.253174
C	 0.7370418403	-2.1090333806	 0.0492955675	 0.489104
O	 1.3579832133	-3.1348961056	 0.0848759921	-0.399494
N	 1.1244239619	-0.8065987939	 0.0713071294	-0.386772
H	-0.1643325209	 1.9087512716	-0.8260716996	 0.25384
H	-0.2592015293	 1.9087872208	 0.8155170394	 0.253848
H	-2.8361443924	-1.3299791615	-0.1545823772	 0.315794
H	 2.0836954248	-0.5126963944	 0.1263054763	 0.276559
30.5893	102.6802	155.3675	267.003	272.7456	285.1125	352.2007	459.0911	596.4076	644.024	648.1067	672.8741	727.5824	751.4778	852.1369	910.0547	1056.2137	1203.1815	1212.3262	1273.1639	1303.071	1372.8153	1444.9967	1658.2111	1809.9675	1916.3678	3515.5052	3583.4065	3696.1486	3819.7312
NC1=C(O)OC(=O)N1	Nc1c(O)oc(=O)[nH]1	
InChI=1S/C3H4N2O3/c4-1-2(6)8-3(7)5-1/h6H,4H2,(H,5,7)	InChI=1S/C3H4N2O3/c4-1-2(6)8-3(7)5-1/h6H,4H2,(H,5,7)
