14
gdb 2977	4.39172	2.00431	1.47018	4.5906	57.81	-0.2568	0.0152	0.272	800.841	0.114492	-320.725883	-320.718633	-320.717689	-320.75739	25.685	
N	-0.2439204198	 1.6167151221	-0.0046196544	-0.499372
C	 0.0433491395	 0.1804319856	-0.0631191327	-0.1602
C	-1.20604743	-0.5653817162	 0.1715314026	 0.300311
N	-2.1814509071	-1.1633391668	 0.3296159464	-0.310728
C	 0.7099172385	-0.2987465684	-1.351156685	 0.021227
C	 2.1922986534	-0.2982042885	-1.4316614417	-0.25374
N	 1.4436664367	-1.5655867525	-1.3984436234	-0.303622
H	 0.6107603508	 2.1280216647	-0.206547813	 0.240171
H	-0.9133495489	 1.8648224023	-0.7278961203	 0.245226
H	 0.7161662703	-0.0560259666	 0.7738878426	 0.126849
H	 0.1290901036	-0.0911401342	-2.248201156	 0.108169
H	 2.6883605661	-0.0827963662	-2.3732924994	 0.130991
H	 2.7491990569	 0.0049794882	-0.5473254855	 0.115267
H	 1.49249485	-1.9862345934	-0.4727313203	 0.239449
75.2657	150.1172	214.4457	257.0561	261.0088	370.7179	437.1774	538.0428	601.3431	793.6875	855.9469	866.3596	894.9119	953.0808	971.6687	1041.7611	1115.7381	1128.178	1152.6959	1180.1857	1223.9822	1243.4976	1282.1369	1316.5067	1392.2961	1415.7924	1512.304	1656.525	2365.0688	3010.9083	3104.1307	3126.6123	3192.811	3489.492	3491.0787	3573.7658
NC(C#N)C1CN1	N[C@@H](C#N)[C@H]1CN1	
InChI=1S/C4H7N3/c5-1-3(6)4-2-7-4/h3-4,7H,2,6H2	InChI=1S/C4H7N3/c5-1-3(6)4-2-7-4/h3-4,7H,2,6H2/t3-,4+/m0/s1
