15
gdb 2767	3.71781	2.55363	1.8752	3.6885	57.25	-0.2429	-0.0293	0.2136	715.9779	0.123705	-345.638357	-345.631107	-345.630162	-345.670291	25.082	
C	-0.2896046056	 1.5353905735	-0.0602588771	-0.422965
C	-0.0013069059	 0.0412522054	-0.0344400026	-0.046488
C	 1.2978931346	-0.458235685	-0.7077029355	-0.071879
O	 1.7207141719	-1.1389230435	 0.4919579902	-0.26596
C	 0.6257615832	-0.6164180322	 1.2435105638	 0.03812
C	 1.0294588554	 0.3486601078	 2.3376369712	 0.141919
O	 2.1370747831	 0.7869783825	 2.4987194002	-0.235243
H	 0.5704767001	 2.1165250163	 0.2871991689	 0.14126
H	-0.5188686362	 1.8570245901	-1.081718951	 0.125337
H	-1.1503798762	 1.7928707454	 0.5655574384	 0.12376
H	-0.8777550536	-0.5198392409	-0.3667886627	 0.09312
H	 1.1791565047	-1.1479225517	-1.5506476732	 0.107185
H	 1.9982827095	 0.3389733705	-0.9880628571	 0.110941
H	 0.0121772857	-1.4093204854	 1.6978613303	 0.091744
H	 0.1793670294	 0.6441883569	 2.9990249361	 0.069149
59.4112	84.0712	224.1558	249.8462	260.8044	347.9414	443.0848	674.3924	758.1269	786.2761	891.0331	915.3281	929.5845	968.9184	1017.0697	1080.4457	1113.1632	1139.1412	1155.9137	1180.6181	1236.6529	1271.0353	1338.1082	1353.1779	1384.7304	1416.5887	1418.0484	1498.7866	1500.5941	1525.5938	1838.7712	2839.8342	2991.7501	3017.3126	3034.126	3062.5097	3081.5087	3099.8497	3111.8482
CC1COC1C=O	C[C@H]1CO[C@H]1C=O	
InChI=1S/C5H8O2/c1-4-3-7-5(4)2-6/h2,4-5H,3H2,1H3	InChI=1S/C5H8O2/c1-4-3-7-5(4)2-6/h2,4-5H,3H2,1H3/t4-,5-/m0/s1
