17
gdb 4961	3.18924	2.24616	1.33972	2.0205	77.75	-0.2414	-0.0122	0.2292	917.1329	0.143633	-326.801926	-326.794486	-326.793542	-326.833394	28.087	
C	 0.0120723855	 1.5263557958	-0.0242711441	-0.50152
C	 0.0096364489	 0.0195522472	-0.0164411386	 0.246041
C	-0.0095598923	-0.7070164839	-1.2038411409	-0.149854
C	-0.0113931021	-2.0975756216	-1.1693469932	-0.124543
C	 0.0063285395	-2.7169269331	 0.0728743106	-0.01142
N	 0.0249555022	-2.0460988979	 1.2275673263	-0.311804
C	 0.0266837913	-0.7086495589	 1.1907081394	 0.258027
C	 0.0480047125	-0.0047052611	 2.5234555525	-0.482156
H	 0.8997970413	 1.9330516848	 0.4742857361	 0.133323
H	-0.003615323	 1.9133932883	-1.0465217119	 0.121852
H	-0.857817771	 1.9360618687	 0.5024371425	 0.133307
H	-0.0230632688	-0.1810338425	-2.154412118	 0.096398
H	-0.0261755404	-2.6842576355	-2.0810907987	 0.096768
H	 0.0056638282	-3.8018218964	 0.1508983107	 0.103221
H	 0.9296970482	 0.6394458777	 2.6253608437	 0.126188
H	-0.8290834262	 0.6408550428	 2.6526733041	 0.126225
H	 0.0597638862	-0.7461011044	 3.3229170695	 0.139948
129.7967	163.5461	167.2515	270.4524	295.7924	419.1034	455.4482	526.0729	529.4929	594.4411	739.5053	761.6078	815.7224	862.3437	961.5166	984.159	989.9801	1010.7116	1046.249	1078.2655	1093.0497	1144.2451	1197.8509	1266.8008	1297.3227	1303.6962	1405.3238	1420.4866	1459.986	1469.6882	1478.5023	1491.5389	1494.3015	1503.9924	1609.8467	1633.9194	3026.2315	3027.0029	3074.0624	3076.3169	3111.8504	3146.7354	3150.1481	3165.956	3197.2647
CC1=CC=CN=C1C	Cc1cccnc1C	
InChI=1S/C7H9N/c1-6-4-3-5-8-7(6)2/h3-5H,1-2H3	InChI=1S/C7H9N/c1-6-4-3-5-8-7(6)2/h3-5H,1-2H3
