15
gdb 4088	1.9992	1.80403	0.95386	0.8684	78.25	-0.2201	-0.0501	0.17	1153.4628	0.112207	-453.872681	-453.864623	-453.863679	-453.905339	30.444	
O	-0.0380949918	 1.3339241347	 0.008332052	-0.360396
N	 0.010211724	-0.0521343828	 0.0046904082	-0.230755
C	-1.1428296753	-0.603454868	 0.0116475875	 0.327725
C	-1.2497332421	-2.1218258559	 0.0087007371	-0.338952
C	-2.7375332238	-2.3515359938	 0.0188327806	-0.092276
C	-3.4307419331	-1.2050142435	 0.0266100701	-0.130982
C	-2.5190784077	-0.054102706	 0.0228496995	 0.307923
N	-2.7960412245	 1.2031736422	 0.0278795772	-0.233739
O	-4.1796966362	 1.4035782345	 0.0382464193	-0.382741
H	 0.8967594964	 1.5696770081	 0.0021630082	 0.308664
H	-0.7677028081	-2.5601877023	-0.8738344781	 0.137288
H	-0.7550816441	-2.5644744337	 0.8820639527	 0.137287
H	-3.171022122	-3.3445257922	 0.019524196	 0.111587
H	-4.5051683138	-1.0975892613	 0.034588463	 0.128007
H	-4.2438964078	 2.3647693301	 0.0410103419	 0.311359
86.2388	185.877	192.4659	273.5491	283.8892	319.18	424.9431	428.2515	456.3371	534.8085	549.8307	670.7744	692.7699	760.5511	798.1222	831.8786	964.0868	972.5422	973.2526	987.1857	1027.6461	1105.0689	1156.905	1157.8035	1256.9563	1295.8487	1360.6536	1408.2408	1415.7092	1460.8603	1646.7588	1675.7449	1731.1935	3031.6585	3057.8536	3205.9104	3255.0347	3799.8062	3817.1111
ON=C1CC=CC1=NO	ON=C1CC=CC1=NO	
InChI=1S/C5H6N2O2/c8-6-4-2-1-3-5(4)7-9/h1-2,8-9H,3H2	InChI=1S/C5H6N2O2/c8-6-4-2-1-3-5(4)7-9/h1-2,8-9H,3H2
