13
gdb 3793	7.68896	1.98786	1.61388	3.2565	56.	-0.2186	0.0037	0.2223	735.8439	0.103118	-340.622406	-340.616019	-340.615075	-340.652921	22.767	
C	 0.0254415065	 1.433101183	 0.1435996658	-0.328269
N	-0.0406150226	 0.0328032486	-0.2383445901	-0.369069
C	-1.2153528297	-0.6671215281	-0.0827593474	 0.449056
N	-1.1989389369	-1.9751948897	 0.0934175032	-0.248538
O	-2.5461480414	-2.36054449	 0.1369188664	-0.166939
C	-3.3092984826	-1.2731552436	 0.004214082	 0.092665
C	-2.5525440239	-0.1579473961	-0.1371245644	-0.331427
H	 1.0298299387	 1.8066137273	-0.0678436088	 0.133128
H	-0.6745380908	 2.0204475439	-0.4586071801	 0.136191
H	-0.1981738633	 1.6148730837	 1.2056383732	 0.12014
H	 0.7683590902	-0.5166416955	 0.0147549224	 0.25038
H	-4.3757971131	-1.4395453978	 0.0272070947	 0.146345
H	-2.8847040212	 0.8574668642	-0.266972347	 0.116336
83.5629	156.6379	221.7913	327.8306	448.9413	586.277	592.0267	716.3614	727.7493	774.5889	865.298	910.3363	936.0443	988.5775	1071.8711	1113.008	1152.8295	1172.202	1189.015	1337.1457	1408.6501	1456.2051	1489.6522	1495.9877	1516.3287	1545.3712	1643.4117	2990.1918	3077.3309	3123.7252	3256.0562	3289.1454	3599.4859
CNC1=NOC=C1	CNc1nocc1	
InChI=1S/C4H6N2O/c1-5-4-2-3-7-6-4/h2-3H,1H3,(H,5,6)	InChI=1S/C4H6N2O/c1-5-4-2-3-7-6-4/h2-3H,1H3,(H,5,6)
