14
gdb 1636	4.5257	2.11122	1.46598	1.778	56.45	-0.2668	-0.0332	0.2336	793.089	0.112126	-361.772743	-361.76496	-361.764015	-361.804833	26.496	
C	-0.1539254063	 1.4642305946	-0.0388868997	-0.343524
N	-0.2146072511	 0.0004374897	 0.0111717757	-0.131209
C	-0.4150487679	-0.6197085554	 1.2356652164	 0.169838
O	-0.5462767579	-0.0347979731	 2.2836693232	-0.306014
C	-0.0622759445	-0.6852796961	-1.2035996498	 0.419146
C	-0.1193705797	-2.2020557771	-1.1946904638	-0.506868
O	 0.1099469127	-0.056760833	-2.2238588724	-0.326861
H	 0.8101371006	 1.7842415523	-0.4386990837	 0.14911
H	-0.9392439433	 1.8480902173	-0.6928202837	 0.149066
H	-0.2881248995	 1.8308027476	 0.9766033197	 0.164445
H	-0.4442630018	-1.71687034	 1.163972242	 0.100915
H	-1.0802541604	-2.5714457486	-0.8245485029	 0.152004
H	 0.0167565567	-2.5306423995	-2.2245039304	 0.157866
H	 0.6698011524	-2.6352926088	-0.5731073006	 0.152086
89.1025	118.0635	164.0933	193.2714	264.0998	337.3887	344.7234	428.639	523.7317	605.6908	643.2655	830.9286	962.2838	1026.0307	1030.1978	1056.3822	1152.8358	1159.3754	1323.4198	1355.5845	1391.6708	1443.8983	1455.5744	1477.6882	1486.6971	1493.1032	1507.1912	1775.4889	1822.1584	3029.317	3051.9629	3070.3257	3117.2298	3136.4366	3163.4718	3186.2042
CN(C=O)C(C)=O	CN(C=O)C(=O)C	
InChI=1S/C4H7NO2/c1-4(7)5(2)3-6/h3H,1-2H3	InChI=1S/C4H7NO2/c1-4(7)5(2)3-6/h3H,1-2H3
