10
gdb 3813	9.47943	2.00069	1.65202	2.1234	55.88	-0.2709	-0.0473	0.2236	670.21	0.070106	-318.390876	-318.385536	-318.384592	-318.420044	19.122	
N	 0.1415343668	-1.13798381	-0.0054403537	-0.33263
C	 0.0242941605	 0.014260011	 0.0025020361	 0.224625
C	-0.0970808918	 1.4228809902	 0.0119186872	 0.290122
C	-1.2100818436	 2.2497628176	 0.0311724246	-0.296229
C	-0.6784012666	 3.5509949793	 0.0313860137	 0.003521
N	 0.6555449937	 3.5430235245	 0.0138074898	-0.195153
N	 0.9884723901	 2.2512140659	 0.0022586902	-0.257305
H	-2.2417257224	 1.9402971982	 0.0430354878	 0.136193
H	-1.2080413733	 4.491451806	 0.0435826739	 0.132583
H	 1.9596614865	 1.9835308574	-0.0120228095	 0.294273
175.2361	175.6737	496.7635	548.378	558.8491	579.1062	677.6257	704.7177	828.238	907.7231	937.1307	1031.8223	1065.6466	1152.3502	1251.7861	1293.5371	1353.532	1438.1827	1461.9945	1582.7891	2348.1465	3258.0076	3285.2686	3660.6804
N#CC1=CC=NN1	N#Cc1ccn[nH]1	
InChI=1S/C4H3N3/c5-3-4-1-2-6-7-4/h1-2H,(H,6,7)	InChI=1S/C4H3N3/c5-3-4-1-2-6-7-4/h1-2H,(H,6,7)
