16
gdb 4962	3.26158	2.29419	1.35977	2.061	75.39	-0.2079	-0.0057	0.2022	884.4759	0.133242	-342.860405	-342.853315	-342.85237	-342.89126	27.728	
C	-0.0563214271	 1.5321156033	-0.0111728883	-0.51859
C	-0.0150491218	 0.0279650851	-0.0218680934	 0.243734
C	-0.0068930615	-0.708646058	-1.1966561487	-0.149722
C	 0.0109334302	-2.1036059714	-1.1600703541	-0.14145
C	 0.0230016558	-2.7130508096	 0.0854145354	-0.008411
N	 0.0256552238	-2.0404697676	 1.2394672276	-0.333845
C	 0.0033961203	-0.7058294917	 1.1880180209	 0.302424
N	-0.0566906216	-0.0536575964	 2.4097049241	-0.563276
H	 0.8480010349	 1.9662697499	 0.4381058287	 0.122349
H	-0.1358187214	 1.9301642794	-1.0259625797	 0.125998
H	-0.9099213677	 1.9048181469	 0.5679022401	 0.137658
H	-0.0202726083	-0.1860145482	-2.1492820899	 0.09306
H	 0.0153479067	-2.693459009	-2.0687377567	 0.090312
H	 0.0360457038	-3.7973676521	 0.1709109921	 0.100567
H	 0.1771628747	-0.6564910079	 3.1854155407	 0.251835
H	 0.3661573192	 0.8599700072	 2.4605555911	 0.247358
159.5547	181.372	272.466	296.4302	388.4298	443.7217	455.7917	532.711	550.7228	596.8074	618.5415	755.3464	797.8767	803.5171	889.1601	958.9648	974.1634	1006.5255	1046.1983	1065.1163	1105.0529	1161.4849	1217.5604	1314.754	1328.7836	1346.433	1413.154	1472.6922	1481.9391	1492.3613	1510.7857	1617.5828	1626.6066	1651.5492	3006.2193	3058.4567	3112.5301	3150.125	3164.6571	3204.3371	3571.3032	3684.5015
CC1=CC=CN=C1N	Cc1cccnc1N	
InChI=1S/C6H8N2/c1-5-3-2-4-8-6(5)7/h2-4H,1H3,(H2,7,8)	InChI=1S/C6H8N2/c1-5-3-2-4-8-6(5)7/h2-4H,1H3,(H2,7,8)
