14
gdb 2250	3.95502	3.09738	2.07201	2.6062	58.81	-0.2582	0.0219	0.2801	650.2931	0.113308	-324.551244	-324.544847	-324.543903	-324.581267	24.01	
C	-0.02679277	 1.5814070574	 0.0388475471	-0.489575
C	 0.0431169873	 0.0845702633	 0.0026060456	 0.183918
C	-0.8725078568	-0.8551316462	 0.8040833212	-0.332136
C	 0.6033669902	-0.9692219846	 0.934409716	 0.055375
O	 1.1181596341	-1.7434647879	-0.1828152609	-0.27808
C	 0.6911867205	-0.7462327392	-1.0623745098	 0.407568
N	 0.8849401935	-0.6099738332	-2.292368102	-0.556542
H	 0.9381834578	 2.0268093053	-0.2208261428	 0.13619
H	-0.7684490117	 1.9511507295	-0.6765174475	 0.141963
H	-0.3138409703	 1.9365052678	 1.0331591659	 0.120453
H	-1.3892905273	-0.3613887984	 1.6222755589	 0.124326
H	-1.4286280316	-1.6488390078	 0.3148326432	 0.131861
H	 1.2151312627	-0.9122504388	 1.8241786828	 0.124315
H	 1.4253482017	-1.3891458972	-2.6719770277	 0.230363
151.4988	179.8073	251.8162	292.1623	457.7488	465.2335	634.0086	678.952	739.586	834.1465	861.4142	883.338	896.5167	934.6416	988.3275	1006.0444	1027.2319	1073.6434	1107.6399	1113.799	1186.1144	1274.0854	1289.3233	1399.4631	1428.0183	1481.3352	1487.9048	1498.0655	1830.179	3038.6054	3104.5967	3112.2165	3120.62	3210.8285	3218.8771	3478.6779
CC12CC1OC2=N	C[C@]12C[C@H]1O[C]2[NH]	
InChI=1S/C5H7NO/c1-5-2-3(5)7-4(5)6/h3,6H,2H2,1H3	InChI=1S/C5H7NO/c1-5-2-3(5)7-4(5)6/h3,6H,2H2,1H3/t3-,5+/m1/s1
