13
gdb 3658	3.67375	3.44432	1.80484	4.1563	56.2	-0.2096	0.0069	0.2164	668.4957	0.103635	-336.819674	-336.812929	-336.811984	-336.850301	23.976	
C	-0.049075875	 1.5576387984	 0.1091140294	-0.515914
C	-0.0026935096	 0.0741324812	-0.0162834035	 0.288451
C	-0.0284053179	-0.768227545	-1.1108368903	 0.23064
N	-0.1535744008	-0.4374806341	-2.4658380628	-0.597946
N	 0.0131002721	-2.0601049608	-0.6826271261	-0.251306
N	 0.0617887781	-2.0782137815	 0.6231922453	-0.128838
N	 0.0675784732	-0.7999812908	 1.0260835648	-0.223501
H	 0.9443267589	 2.0021208689	 0.2481769963	 0.137936
H	-0.4799940227	 1.9848051427	-0.8006390786	 0.152607
H	-0.6724112461	 1.8739310381	 0.952213903	 0.134967
H	 0.5878319061	 0.1685049678	-2.796152829	 0.245031
H	-0.1575967164	-1.2839662051	-3.0231844646	 0.253196
H	 0.1052103902	-0.5969286498	 2.0123242461	 0.274675
102.1107	178.3067	239.9227	246.9101	322.8097	437.8377	551.1359	654.0813	684.3781	732.692	748.3329	820.1804	982.5345	1022.816	1062.8957	1109.6419	1115.0918	1240.9978	1271.9066	1353.1334	1381.2189	1423.0249	1483.1173	1490.7732	1529.2438	1647.4473	1654.7946	3022.897	3078.0469	3114.9091	3524.351	3610.5052	3652.5493
CC1=C(N)N=NN1	Cc1c(N)nn[nH]1	
InChI=1S/C3H6N4/c1-2-3(4)6-7-5-2/h1H3,(H3,4,5,6,7)	InChI=1S/C3H6N4/c1-2-3(4)6-7-5-2/h1H3,(H3,4,5,6,7)
