14
gdb 3610	4.32281	4.19956	3.03423	0.6389	55.83	-0.2136	0.0605	0.2741	517.2626	0.115811	-324.49452	-324.489727	-324.488782	-324.52274	19.604	
C	 0.0107653207	 1.522365227	 0.0084762513	-0.182971
C	 1.5477744968	 1.4639999451	-0.0238548124	 0.095798
O	 2.0913467894	 1.1685053652	 1.2857199749	-0.305226
C	 1.7674549023	-0.2367759473	 1.1513557986	 0.095798
C	 0.2709986485	-0.4923725161	 1.4006300483	-0.18297
N	-0.090496505	 0.0162230606	 0.0259749002	-0.164129
C	 1.3994259501	-0.0426117364	-0.3376802878	-0.045706
H	-0.4527411208	 2.0367610547	 0.8551946866	 0.110904
H	-0.4142536927	 1.8999035757	-0.9279878603	 0.109923
H	 2.1362854184	 2.2130845509	-0.5583357417	 0.081952
H	 2.5361885424	-0.8829895712	 1.5810055793	 0.081952
H	 0.0326228295	-1.5598337188	 1.4626379888	 0.109923
H	-0.1943757824	 0.0364867141	 2.2373544827	 0.110904
H	 1.7360402626	-0.6009672036	-1.2086612483	 0.083846
332.5837	352.6052	465.4044	686.5099	719.8685	785.5344	835.5496	836.1975	859.5438	877.2642	958.0704	958.2626	982.959	1002.7008	1009.9567	1057.6388	1103.0796	1169.7653	1184.5611	1193.8895	1204.7431	1212.1416	1259.3722	1280.7947	1298.362	1315.3569	1342.9913	1474.8701	1489.7377	3036.8774	3040.0549	3082.1329	3085.2782	3099.3888	3102.8959	3138.1823
C1C2OC3CN1C23	C1[C@H]2O[C@H]3CN1[C@@H]23	
InChI=1S/C5H7NO/c1-3-5-4(7-3)2-6(1)5/h3-5H,1-2H2	InChI=1S/C5H7NO/c1-3-5-4(7-3)2-6(1)5/h3-5H,1-2H2/t3-,4+,5+
