10
gdb 2607	12.30541	1.01248	0.94092	3.5663	67.34	-0.2648	-0.0359	0.2289	1108.4508	0.065207	-284.993731	-284.986669	-284.985725	-285.025025	24.221	
C	 0.013310917	-3.7842005082	-0.018387173	-0.531831
C	 0.0193661224	-2.5774602736	-0.0119630606	 0.299305
C	 0.0240000026	-1.216783828	-0.0046956171	-0.265539
C	 0.0297446758	-0.009035113	 0.0017399257	 0.428892
C	 0.0150404129	 1.4487596123	 0.0097103341	-0.505964
C	 1.3598351383	 2.0408707493	 0.0000406604	 0.283829
N	 2.4090552824	 2.5219585316	-0.0074023676	-0.292644
H	 0.0117167961	-4.8463059968	-0.0240803536	 0.20154
H	-0.5353038693	 1.8289499069	-0.8611627029	 0.191206
H	-0.5185157283	 1.8195153094	 0.8949785445	 0.191206
75.4512	141.5047	197.6986	328.8766	355.5905	374.2232	503.4691	548.6498	549.7784	606.5686	615.4506	751.4921	927.4419	932.7663	1179.9568	1232.61	1338.4319	1442.2495	2189.8772	2372.0205	2380.2302	3022.6278	3053.3985	3502.1361
C#CC#CCC#N	C#CC#CCC#N	
InChI=1S/C6H3N/c1-2-3-4-5-6-7/h1H,5H2	InChI=1S/C6H3N/c1-2-3-4-5-6-7/h1H,5H2
