18
gdb 292	4.47958	2.66966	2.28942	1.414	59.83	-0.2613	0.0684	0.3297	675.0478	0.164151	-272.843742	-272.8356	-272.834656	-272.875156	29.475	
C	-0.0404432791	 1.532306249	 0.0361053109	-0.390662
C	 0.0612898805	 0.0016154805	-0.0300777285	 0.052167
C	 0.7358091482	-0.4454032457	-1.3354345335	-0.387114
C	 0.7710571728	-0.542836574	 1.224207627	 0.152433
C	 0.7590222783	-2.0683715924	 1.3367072189	-0.416234
O	 2.1070516526	-0.0400085442	 1.2019940324	-0.437236
H	 0.9561275313	 1.9825728199	 0.0498546404	 0.131847
H	-0.5833989874	 1.9267895962	-0.828757572	 0.103585
H	-0.5674576226	 1.8578176771	 0.9398778528	 0.102333
H	-0.9575222665	-0.4094118674	-0.0063634807	 0.065301
H	 1.7793985541	-0.1201045361	-1.35782184	 0.132137
H	 0.7175782962	-1.53243755	-1.4577567814	 0.106226
H	 0.2231782656	-0.0096642749	-2.1989047075	 0.105105
H	 0.2392304559	-0.1327280384	 2.1003123146	 0.056614
H	 1.2209380824	-2.3874978245	 2.2786842955	 0.10172
H	-0.2652926258	-2.4558215542	 1.3259919628	 0.114318
H	 1.3163224199	-2.5298567878	 0.5170767751	 0.127231
H	 2.5657934736	-0.3782756133	 1.9766952931	 0.280227
81.3005	204.016	225.8756	241.453	255.8497	268.0068	290.503	347.1846	403.3702	494.3438	601.7126	750.3507	884.2394	927.0226	944.3469	966.6378	1023.2077	1034.185	1077.2585	1160.5929	1180.6484	1195.2197	1253.9709	1336.7209	1364.6774	1391.3903	1393.3664	1401.0111	1406.7608	1429.296	1485.2144	1492.4833	1494.6418	1498.2993	1506.7042	1517.9775	2943.3797	3009.2808	3027.7898	3031.9184	3041.4192	3089.4951	3094.7306	3102.1418	3115.598	3119.8294	3123.1402	3825.3189
CC(C)C(C)O	CC(C)[C@@H](C)O	
InChI=1S/C5H12O/c1-4(2)5(3)6/h4-6H,1-3H3	InChI=1S/C5H12O/c1-4(2)5(3)6/h4-6H,1-3H3/t5-/m1/s1
