17
gdb 1342	4.12925	1.91362	1.77573	0.8854	61.08	-0.2352	0.08	0.3153	806.1761	0.145684	-346.825562	-346.817332	-346.816388	-346.857503	29.989	
C	-0.334715706	 1.0905362183	-0.1097872608	-0.237445
O	 0.5612474329	 0.0162059118	 0.1066179892	-0.233503
C	 0.925848852	-0.6263387219	-1.0721619651	 0.096942
C	 1.5178079758	-2.0015822801	-0.9368940982	-0.384022
C	 0.1484108456	-1.8160746953	-1.571529939	 0.353834
C	-1.082136999	-2.2966141855	-0.8392718948	-0.450832
O	 0.0787954998	-1.8891120723	-2.9730790058	-0.462152
H	 0.1106801878	 1.8591778018	-0.759011856	 0.110066
H	-1.2748073501	 0.7537054276	-0.5678225145	 0.113825
H	-0.5485573955	 1.5319961233	 0.8663791643	 0.126011
H	 1.3396780399	 0.0245852936	-1.8438600563	 0.092501
H	 2.3506139671	-2.2550401312	-1.583203197	 0.112776
H	 1.5565465366	-2.4186504151	 0.0638349895	 0.120908
H	-1.0194982679	-2.050141457	 0.2232366266	 0.132781
H	-1.9792905495	-1.8277856459	-1.2561086833	 0.121853
H	-1.1959917202	-3.3836539537	-0.9318494998	 0.106548
H	 0.1272728105	-2.8189401285	-3.222930869	 0.279908
108.167	163.023	174.0396	225.9458	243.0846	295.084	352.4456	387.0583	436.5463	456.091	538.1209	721.6258	808.2422	893.4274	909.984	973.8981	1016.7461	1057.6489	1069.6746	1096.013	1125.4023	1176.805	1183.275	1233.3919	1256.1271	1298.6751	1350.0054	1401.5226	1410.5713	1466.5075	1486.1104	1487.9353	1491.5709	1508.3618	1510.6116	2987.8551	3026.5964	3041.8613	3088.4062	3095.1793	3119.1553	3128.1694	3133.86	3227.821	3785.3147
COC1CC1(C)O	CO[C@H]1C[C@]1(C)O	
InChI=1S/C5H10O2/c1-5(6)3-4(5)7-2/h4,6H,3H2,1-2H3	InChI=1S/C5H10O2/c1-5(6)3-4(5)7-2/h4,6H,3H2,1-2H3/t4-,5-/m0/s1
