13
gdb 3867	3.89602	3.32561	1.80609	1.8961	56.	-0.183	0.0418	0.2248	658.9095	0.104619	-336.825944	-336.81908	-336.818135	-336.856445	25.129	
N	 0.0605099209	 1.4612841563	 0.1202399763	-0.622479
C	-0.0026233812	 0.0554271575	 0.0207806395	 0.13952
C	-1.0789722894	-0.8067180392	 0.0215669167	-0.106506
N	-0.5623741929	-2.0650255887	-0.0369079833	-0.200415
N	 0.7897764746	-2.0802322267	-0.0687671449	-0.304412
C	 1.1309328749	-0.7974481715	-0.0349311492	 0.330961
N	 2.4591344638	-0.3609354206	-0.1216938101	-0.600422
H	 0.6763215596	 1.8471632733	-0.5889348557	 0.246181
H	-0.8492079016	 1.893852922	 0.018178141	 0.238275
H	-2.141669902	-0.6245799769	 0.0531289941	 0.116393
H	-1.059160286	-2.9366406868	-0.0351121493	 0.268593
H	 3.1005800323	-1.140518064	-0.0369484855	 0.247665
H	 2.6714312369	 0.3323456653	 0.5876588305	 0.246648
104.1309	232.5664	248.425	276.654	332.1565	378.8271	471.5504	633.0513	646.3009	705.3217	737.4421	770.5987	812.3828	847.0985	938.0947	1061.1063	1104.4304	1126.31	1237.5008	1281.2467	1345.7111	1457.9283	1487.4515	1563.4399	1624.2655	1645.7725	1667.8651	3256.6253	3501.1472	3512.3614	3600.1897	3610.082	3704.5619
NC1=CNN=C1N	Nc1c[nH]nc1N	
InChI=1S/C3H6N4/c4-2-1-6-7-3(2)5/h1H,4H2,(H3,5,6,7)	InChI=1S/C3H6N4/c4-2-1-6-7-3(2)5/h1H,4H2,(H3,5,6,7)
