12
gdb 2449	6.63738	2.64943	2.18299	4.1001	50.79	-0.2498	0.0512	0.301	590.6214	0.091371	-360.506446	-360.501147	-360.500203	-360.53549	20.29	
N	-0.0821603205	 1.2593060021	-0.4545552907	-0.565852
C	-0.007447545	 0.1026421156	 0.0260606748	 0.486955
O	 1.1347057315	-0.5920433352	 0.3396279612	-0.250448
C	 0.7793611415	-1.8342940605	 0.9079344934	 0.058936
C	 0.0246258	-1.7767955346	 2.2147078328	-0.345496
C	-0.712400475	-1.8594260549	 0.8991346168	 0.069389
O	-1.111038135	-0.6353153215	 0.326243203	-0.225523
H	 0.8487723174	 1.6388994201	-0.6067333674	 0.235141
H	 1.4430789969	-2.6418765518	 0.6298321446	 0.12764
H	 0.0356648785	-2.6741941887	 2.8238969432	 0.133097
H	 0.0051575444	-0.8390451616	 2.7594787898	 0.146606
H	-1.3442918747	-2.690390979	 0.6163672285	 0.129555
132.8831	321.7681	464.445	469.4848	711.8239	715.5003	744.0385	790.2767	803.1192	806.9484	886.2461	970.2293	1003.9732	1009.0422	1012.4239	1074.4834	1094.9778	1142.9664	1160.9977	1198.2123	1235.5249	1378.4583	1383.5437	1460.4906	1804.4885	3136.5534	3204.7718	3212.4112	3233.3021	3543.8928
N=C1OC2CC2O1	[NH][C]1O[C@H]2C[C@H]2O1	
InChI=1S/C4H5NO2/c5-4-6-2-1-3(2)7-4/h2-3,5H,1H2	InChI=1S/C4H5NO2/c5-4-6-2-1-3(2)7-4/h2-3,5H,1H2/t2-,3+
