15
gdb 3163	3.83597	2.78561	1.92078	2.1637	57.22	-0.2548	0.0587	0.3135	688.3455	0.124445	-345.615452	-345.608685	-345.607741	-345.645963	25.278	
O	 0.2287414358	 1.1245699503	-0.5696955291	-0.42969
C	 0.0319369681	-0.1240227736	 0.0444542604	 0.051258
C	-0.0294867345	-0.2172327823	 1.6033068441	-0.26082
C	-1.2842089881	-1.1329735389	 1.4698901316	-0.323985
C	-1.4081181331	-0.6258609521	 0.0312555387	 0.445627
C	-2.5434823736	 0.0110534525	-0.6329645168	-0.255013
O	-2.0450197436	-1.2735198201	-1.0477703734	-0.277999
H	 1.1726622364	 1.2684126114	-0.6843667437	 0.288081
H	 0.7029672844	-0.8906803814	-0.3688050896	 0.078911
H	 0.8411521708	-0.6268147069	 2.1182730395	 0.099254
H	-0.2798676182	 0.7589443123	 2.0250029361	 0.114533
H	-1.0319093374	-2.1966782748	 1.5020504537	 0.115929
H	-2.1219620369	-0.9464835685	 2.1441263635	 0.110835
H	-3.5232074789	-0.002032182	-0.1568343551	 0.111917
H	-2.3624348511	 0.8259566342	-1.3302308301	 0.131162
116.2638	207.9605	227.7288	282.485	338.9884	424.5689	538.126	563.8216	713.3638	797.2394	856.1118	889.6613	898.3781	944.1995	958.1623	1076.3774	1088.5255	1130.1704	1142.2077	1159.9053	1166.1966	1208.5718	1211.5221	1248.1966	1265.821	1298.1261	1418.9758	1450.7426	1475.5749	1497.2679	1535.6891	3002.9094	3065.4099	3072.9482	3087.5475	3117.7982	3135.1757	3183.1617	3829.1181
OC1CCC11CO1	O[C@H]1CC[C@]21CO2	
InChI=1S/C5H8O2/c6-4-1-2-5(4)3-7-5/h4,6H,1-3H2	InChI=1S/C5H8O2/c6-4-1-2-5(4)3-7-5/h4,6H,1-3H2/t4-,5+/m0/s1
