14
gdb 4662	7.25282	1.22962	1.0583	3.6352	67.41	-0.2341	-0.047	0.187	1057.3679	0.106847	-382.589449	-382.582106	-382.581161	-382.621289	26.066	
C	 0.0651540078	 1.4843176177	 0.0095072575	-0.488428
C	-0.0774186844	 0.0059315625	 0.0199444264	 0.38477
C	-1.1232600424	-0.8442777732	-0.1373830757	-0.400886
C	-0.5961638171	-2.1794706254	-0.0168850835	 0.169067
C	-1.3144977621	-3.4504777679	-0.1088546519	 0.068906
O	-0.80186518	-4.5425192795	 0.0035270409	-0.275581
C	 0.7444055436	-2.0253896274	 0.2066519467	-0.073478
O	 1.0718234529	-0.7197219951	 0.231593749	-0.170234
H	 0.7514967957	 1.8153331847	-0.7777483902	 0.144793
H	-0.9078049877	 1.9475413942	-0.1667377882	 0.141117
H	 0.4555527498	 1.8562065112	 0.9632951756	 0.144788
H	-2.1505238687	-0.5668110169	-0.3178841797	 0.121309
H	-2.4067444073	-3.3480033149	-0.2962891258	 0.067783
H	 1.5434519998	-2.7315009899	 0.358567819	 0.166075
106.0945	129.8929	171.292	216.1687	304.2094	333.1247	464.5333	625.2088	646.4361	685.5798	772.93	793.8442	832.1228	929.5658	1005.0393	1024.4162	1040.4553	1066.5792	1151.1859	1191.8122	1223.1549	1303.0949	1368.7267	1417.9123	1452.0897	1472.3956	1488.9225	1573.5052	1644.8482	1790.2741	2880.0585	3034.3939	3086.6661	3133.4397	3253.1427	3287.4834
CC1=CC(C=O)=CO1	Cc1cc(C=O)co1	
InChI=1S/C6H6O2/c1-5-2-6(3-7)4-8-5/h2-4H,1H3	InChI=1S/C6H6O2/c1-5-2-6(3-7)4-8-5/h2-4H,1H3
