18
gdb 588	10.46011	1.59727	1.52425	0.1174	64.07	-0.2707	0.0954	0.3661	856.0996	0.166165	-235.693825	-235.686573	-235.685628	-235.724945	26.225	
C	-0.0887925916	 1.5238443148	-0.0040448399	-0.37975
C	-0.0933531706	-0.0020133721	-0.1288302679	-0.153403
C	 0.9154567554	-0.5251884588	-1.1597742692	-0.184543
C	 0.9217543834	-2.0344003179	-1.281312066	 0.038159
C	-0.0674323017	-2.7331497477	-2.1815134964	-0.254023
C	 1.3984670256	-2.7044259894	-2.5441873294	-0.276698
H	 0.8971139908	 1.8937826885	 0.2992408639	 0.112409
H	-0.3387355664	 2.0001221342	-0.9589127461	 0.111963
H	-0.8156121024	 1.8676035555	 0.7386974212	 0.109895
H	 0.1263749838	-0.4506188814	 0.8491263346	 0.092127
H	-1.0978177057	-0.3494156842	-0.4016374825	 0.097486
H	 0.6924793664	-0.0858016702	-2.142162654	 0.087043
H	 1.9219510653	-0.1729323985	-0.8928420336	 0.091591
H	 1.1598125747	-2.5538070675	-0.3554284274	 0.077338
H	-0.499013988	-3.6724757254	-1.8537211343	 0.107817
H	-0.743312024	-2.1153718469	-2.7645954369	 0.107059
H	 1.7027277496	-2.0687178475	-3.3695802524	 0.107616
H	 1.9675583252	-3.6239021556	-2.4611610937	 0.107912
95.4503	96.8366	168.3395	244.3091	319.0641	382.9519	430.2378	743.6282	773.2367	805.5251	833.2148	874.9774	894.71	933.4793	981.4298	1037.4855	1053.051	1070.703	1076.3013	1126.5099	1142.5079	1197.7024	1209.9881	1229.5731	1273.864	1304.1715	1329.892	1383.2207	1410.6568	1420.5058	1468.1654	1481.8244	1493.629	1499.7249	1506.9303	1510.5791	3000.9723	3018.3499	3028.0288	3029.6843	3055.5372	3094.2228	3100.0089	3125.7773	3126.6473	3132.0007	3203.4612	3218.8316
CCCC1CC1	CCCC1CC1	
InChI=1S/C6H12/c1-2-3-6-4-5-6/h6H,2-5H2,1H3	InChI=1S/C6H12/c1-2-3-6-4-5-6/h6H,2-5H2,1H3
