15
gdb 998	3.87635	3.32907	1.83223	3.7673	62.88	-0.2105	0.0365	0.2471	691.9459	0.126291	-304.744503	-304.737403	-304.736458	-304.77634	24.819	
C	 0.0421716775	 1.4529490143	 0.0119712393	-0.340732
N	-0.0050958822	 0.0050028362	-0.0007520882	-0.017669
C	-0.0076350051	-0.7991889322	-1.1233879194	-0.134833
C	-0.00231647	-2.0842034745	-0.6566365095	-0.099782
N	 0.007567788	-2.0966165529	 0.7180375034	-0.305122
C	 0.0094626847	-0.8311549538	 1.0862735193	 0.335517
C	 0.024222793	-0.3437425308	 2.4965377719	-0.500487
H	 1.0595972151	 1.8241830802	 0.1803942312	 0.140989
H	-0.312389427	 1.8343944268	-0.9473707924	 0.144502
H	-0.6057164949	 1.8476341497	 0.7985968618	 0.144278
H	-0.0174302613	-0.3784158233	-2.1156316821	 0.118429
H	-0.0108535801	-2.9995655698	-1.2287293283	 0.102528
H	 0.9121571867	 0.2602051688	 2.7189855108	 0.127684
H	-0.8548342176	 0.267627607	 2.7346478095	 0.12806
H	 0.0254825931	-1.2121298757	 3.1562249126	 0.156637
31.9937	140.2286	195.2991	258.0075	273.2703	425.8673	631.461	648.8929	689.4642	728.5849	733.0488	844.0873	929.7734	997.6218	1058.4683	1063.3993	1107.352	1147.9844	1177.0361	1223.3814	1313.431	1380.1763	1407.3697	1443.2022	1471.0614	1482.1732	1487.3787	1491.3358	1512.4765	1537.4325	1572.2672	3023.3504	3034.3429	3069.3206	3102.1499	3137.0492	3148.3516	3244.6463	3272.5702
CN1C=CN=C1C	Cn1ccnc1C	
InChI=1S/C5H8N2/c1-5-6-3-4-7(5)2/h3-4H,1-2H3	InChI=1S/C5H8N2/c1-5-6-3-4-7(5)2/h3-4H,1-2H3
