20
gdb 3101	3.63724	1.94478	1.59551	1.3477	71.3	-0.2101	0.0791	0.2892	895.9641	0.18193	-291.01497	-291.006175	-291.005231	-291.047962	31.58	
C	-5.9301800732	 2.0421804719	 0.4412855431	-0.378064
C	-4.8942947872	 1.8270042147	-0.6695351296	-0.200612
C	-4.0858283113	 0.5632657755	-0.4417925684	 0.004489
C	-4.4504985818	-0.7709659174	-1.020900721	 0.00653
C	-5.6567807222	-0.9973725544	-1.908240043	-0.41529
N	-3.2415641048	-0.0663504576	-1.4599858253	-0.114874
C	-3.1526645905	 0.4929919022	-2.7998879428	-0.311483
H	-6.4726090029	 2.9820163633	 0.3004987807	 0.11202
H	-6.662982864	 1.2289330251	 0.4611018018	 0.119449
H	-5.4504671102	 2.0781707834	 1.4254586044	 0.117818
H	-5.3988678896	 1.8124557367	-1.6392964275	 0.097088
H	-4.207920651	 2.6838419949	-0.6974154006	 0.100986
H	-3.61711884	 0.5541234026	 0.5446342162	 0.079076
H	-4.2151333427	-1.6467840431	-0.4146245075	 0.082258
H	-5.9697699177	-0.1075156757	-2.4571493636	 0.119507
H	-5.4540144878	-1.7859947463	-2.6417941657	 0.122007
H	-6.5068602344	-1.3272573092	-1.3012715688	 0.121134
H	-4.0832056125	 0.9023358087	-3.2179409302	 0.097168
H	-2.4077786125	 1.2957270786	-2.7961025644	 0.120977
H	-2.7955439536	-0.286126074	-3.481630288	 0.119815
66.822	134.2711	152.7332	184.2214	211.0416	245.2199	295.2793	306.359	459.5956	518.5079	534.8319	708.9134	776.4887	793.7742	848.4926	965.0973	988.4721	1035.0655	1051.5315	1072.5423	1126.7236	1140.6959	1167.854	1170.7127	1190.1129	1209.4158	1285.0315	1340.2726	1351.9008	1394.3864	1409.8578	1414.6545	1438.3199	1462.5607	1480.7032	1490.1191	1498.7201	1499.7723	1502.6897	1506.3085	1513.0391	2995.581	3022.7349	3033.4698	3035.4952	3063.1452	3067.3032	3083.429	3086.9949	3088.8059	3094.0192	3106.1327	3106.7359	3130.9193
CCC1C(C)N1C	CC[C@H]1[C@@H](C)N1C	
InChI=1S/C6H13N/c1-4-6-5(2)7(6)3/h5-6H,4H2,1-3H3	InChI=1S/C6H13N/c1-4-6-5(2)7(6)3/h5-6H,4H2,1-3H3/t5-,6+,7?/m1/s1
