11
gdb 921	5.85008	2.92013	1.94784	5.7625	54.88	-0.2398	-0.0592	0.1806	598.3612	0.081719	-339.498757	-339.49358	-339.492636	-339.527754	19.314	
O	-0.0428773118	-0.0556224326	 0.0033801997	-0.377787
C	 0.0221422872	 1.1525580532	 0.0090246124	 0.443592
N	-1.1824560728	 1.9092016026	 0.0289875496	-0.324339
C	-1.234882529	 3.2583004725	 0.0365440133	 0.054659
C	-0.0720924694	 3.9666202244	 0.0244923868	-0.176511
C	 1.1252486992	 3.1983054957	 0.0044085258	 0.035984
N	 1.1946976116	 1.895187016	-0.003165758	-0.311358
H	-2.0258443656	 1.3525953155	 0.0374739112	 0.272613
H	-2.2213002874	 3.7086089557	 0.0520962742	 0.144358
H	-0.0606342496	 5.0466767846	 0.0298217581	 0.115242
H	 2.0805977677	 3.7252638123	-0.0058389731	 0.123547
132.8792	396.7742	486.207	489.5242	573.1252	628.5729	712.9262	778.1917	812.313	831.3235	969.8411	997.384	1016.1063	1023.9264	1112.4382	1137.6471	1222.5232	1384.1976	1439.2241	1488.172	1570.2163	1679.287	1818.0007	3119.8215	3197.7082	3243.5357	3608.6782
O=C1NC=CC=N1	O=c1[nH]cccn1	
InChI=1S/C4H4N2O/c7-4-5-2-1-3-6-4/h1-3H,(H,5,6,7)	InChI=1S/C4H4N2O/c7-4-5-2-1-3-6-4/h1-3H,(H,5,6,7)
