12
gdb 885	6.92502	2.25558	1.71963	3.9101	53.41	-0.2175	0.0207	0.2382	691.3594	0.090314	-360.537947	-360.531853	-360.530908	-360.56777	22.302	
C	 0.0736495431	 1.4704755166	 0.0574706034	-0.489611
C	-0.0608856231	-0.001032857	-0.0189417824	 0.321804
C	-1.0667732307	-0.832316203	-0.2757847042	-0.148869
O	-0.6106869861	-2.1400688025	-0.2111964366	-0.218057
C	 0.7258820366	-2.0748596276	 0.0988803661	 0.497693
N	 1.538745862	-3.0191010153	 0.2571067543	-0.579103
O	 1.0757740768	-0.7614096653	 0.2199072854	-0.224783
H	 0.8074367171	 1.8355663831	-0.6692744202	 0.152147
H	-0.8877761891	 1.9454441931	-0.1492305827	 0.142456
H	 0.4111493241	 1.7821905258	 1.051838798	 0.152161
H	-2.1053584789	-0.6835558275	-0.510908153	 0.158504
H	 1.0759358982	-3.9140911405	 0.1228434419	 0.235658
162.3061	182.1725	282.8316	296.1478	496.9705	588.1111	627.8782	723.3294	746.334	765.2143	776.1552	904.5176	988.776	996.0031	1041.9047	1069.7417	1102.4459	1209.6491	1268.1947	1352.5015	1423.342	1467.2642	1490.3537	1747.3853	1814.0715	3037.8847	3092.8924	3134.7816	3306.2209	3547.819
CC1=COC(=N)O1	CC1=CO[C@@H]([NH])O1	
InChI=1S/C4H5NO2/c1-3-2-6-4(5)7-3/h2,5H,1H3	InChI=1S/C4H6NO2/c1-3-2-6-4(5)7-3/h2,4-5H,1H3/t4-/m1/s1
