14
gdb 1406	5.30345	1.57365	1.28305	3.0734	58.21	-0.2731	-0.0423	0.2308	884.2781	0.111624	-324.607903	-324.600119	-324.599175	-324.640346	26.382	
C	-0.1138073763	 1.6633385423	 0.2111500341	-0.411496
C	 0.0107786866	 0.1649807797	-0.1163515524	-0.084279
C	 0.7526626144	-0.6401591057	 0.9684346864	-0.337717
C	 2.1371400061	-0.2066350908	 1.1303682315	 0.26036
N	 3.2298748303	 0.1526398046	 1.2423110644	-0.310181
C	-1.3628688658	-0.4305971532	-0.3644451332	 0.151262
O	-1.8059506604	-1.3950215077	 0.20369632	-0.238403
H	 0.8759427646	 2.1166447569	 0.3043937585	 0.158259
H	-0.656317031	 2.1924466984	-0.5781029766	 0.130579
H	-0.6506453334	 1.8153109423	 1.1533833611	 0.134755
H	 0.5565631484	 0.0737100014	-1.0672804613	 0.123672
H	 0.2311089183	-0.5409052575	 1.9265599858	 0.162177
H	 0.7324139697	-1.7057350796	 0.7211673476	 0.16796
H	-1.9587263115	 0.1099256889	-1.134302806	 0.093052
62.998	116.813	141.6577	223.0073	243.7329	337.8945	386.745	395.2713	533.8919	659.686	803.2822	879.7486	922.811	936.2014	969.422	1082.8236	1109.8938	1158.8531	1248.9893	1282.7307	1317.0847	1370.3495	1407.4612	1423.9508	1456.5974	1497.2957	1503.1331	1829.4683	2361.9381	2882.254	3009.2727	3041.4138	3060.7183	3100.6089	3111.1166	3128.2682
CC(CC#N)C=O	C[C@@H](CC#N)C=O	
InChI=1S/C5H7NO/c1-5(4-7)2-3-6/h4-5H,2H2,1H3	InChI=1S/C5H7NO/c1-5(4-7)2-3-6/h4-5H,2H2,1H3/t5-/m0/s1
