11
gdb 4695	6.37174	1.43165	1.17014	6.7447	64.64	-0.2284	-0.0484	0.18	922.2497	0.073698	-393.617869	-393.611222	-393.610278	-393.648691	24.107	
N	 0.1465777166	 1.330495018	 0.1722558662	-0.600214
C	-0.0489387212	-0.0193382266	 0.0515389391	 0.372086
C	-1.1491046536	-0.8375248924	-0.0028270266	-0.183355
N	-0.7237255388	-2.1453253257	-0.0367471198	-0.274986
C	 0.5708965299	-2.0838704991	-0.005408375	 0.272962
O	 1.0573531372	-0.794353311	 0.0506320097	-0.18812
C	 1.5131149746	-3.1350234595	-0.027609789	 0.256562
N	 2.2931660494	-3.9910524746	-0.0466325362	-0.333095
H	 1.033521413	 1.6649015064	-0.1771103856	 0.275413
H	-0.6329230118	 1.899309145	-0.1218526368	 0.273887
H	-2.1925382952	-0.5699793905	-0.0178507659	 0.128859
146.0445	160.0146	242.0166	307.4738	383.3222	502.658	563.5341	573.3632	591.2897	705.1515	711.6493	736.6059	792.8017	972.7257	1026.5876	1081.3407	1141.5831	1269.5878	1298.7046	1431.3135	1563.1637	1610.1381	1665.5187	2345.5174	3275.077	3573.3221	3679.0326
NC1=CN=C(O1)C#N	Nc1cnc(o1)C#N	
InChI=1S/C4H3N3O/c5-1-4-7-2-3(6)8-4/h2H,6H2	InChI=1S/C4H3N3O/c5-1-4-7-2-3(6)8-4/h2H,6H2
