12
gdb 3665	3.73929	3.47163	1.82073	3.3047	52.42	-0.2219	-0.0004	0.2215	648.674	0.091261	-356.699649	-356.693192	-356.692248	-356.730236	22.826	
C	-0.0417623685	 1.5646185785	 0.1136672419	-0.513019
C	 0.0145090052	 0.0818010119	-0.0106372941	 0.248418
C	 0.0568552611	-0.764227987	-1.0979124983	 0.300746
O	 0.0569921282	-0.4144009513	-2.400940707	-0.433237
N	 0.1005438483	-2.0528123645	-0.6873678797	-0.279132
N	 0.0881856691	-2.0770336906	 0.6223110482	-0.127052
N	 0.0368939696	-0.8021402049	 1.0281208916	-0.221081
H	 0.8239366942	 1.9668632649	 0.6523974315	 0.138781
H	-0.0485523037	 2.0077283474	-0.884354731	 0.160686
H	-0.9451672772	 1.9011540918	 0.6352661024	 0.138769
H	 0.0925210328	-1.2350062892	-2.9080822565	 0.307504
H	 0.0196426408	-0.6047815869	 2.016230981	 0.278617
67.1808	231.6074	237.6512	339.529	365.2703	453.2165	556.7926	657.6961	697.5188	741.4091	756.4235	978.5896	1023.0061	1065.5551	1119.323	1156.1826	1248.82	1300.7387	1354.3478	1395.4246	1424.0105	1485.0116	1490.3979	1536.0353	1688.4721	3028.2967	3077.7072	3131.4882	3652.0545	3798.9746
CC1=C(O)N=NN1	Cc1c(O)nn[nH]1	
InChI=1S/C3H5N3O/c1-2-3(7)5-6-4-2/h1H3,(H2,4,5,6,7)	InChI=1S/C3H5N3O/c1-2-3(7)5-6-4-2/h1H3,(H2,4,5,6,7)
