12
gdb 4244	4.07907	2.04033	1.36004	3.542	59.85	-0.2514	-0.0437	0.2077	814.952	0.087768	-410.919789	-410.913574	-410.91263	-410.950403	23.165	
N	-0.0951137545	 1.3178013729	 0.0084049677	-0.538255
C	 0.030111216	 0.0537816374	 0.0010497676	 0.420325
N	-1.1422616556	-0.7272104063	 0.0030665107	-0.378245
C	-1.2119688868	-2.0945018288	-0.0036013156	 0.49205
O	-2.2275227616	-2.7483130385	-0.0014431068	-0.381096
N	 0.0639464838	-2.6758508596	-0.0133158183	-0.357556
C	 1.2047590658	-1.9214693886	-0.0155676322	 0.106403
N	 1.2476873763	-0.6408807085	-0.0091791727	-0.303879
H	 0.8326295655	 1.7387152244	 0.0056297907	 0.232841
H	-2.0207435532	-0.2282485178	 0.0104169659	 0.281536
H	 0.0912329442	-3.6836819381	-0.0186266105	 0.280666
H	 2.1325166402	-2.4904384584	-0.0235038565	 0.14521
109.6667	156.4813	385.15	406.7774	506.2993	556.9051	568.8151	584.9768	666.2526	757.9427	769.1602	797.7082	873.5562	942.3677	986.7987	1002.5789	1087.487	1162.6021	1271.9913	1391.1964	1409.8093	1426.9824	1475.1789	1699.704	1737.0109	1853.3579	3158.0733	3514.0904	3622.1153	3644.8223
N=C1NC(=O)NC=N1	[NH]C1=N[CH]NC(=O)N1	
InChI=1S/C3H4N4O/c4-2-5-1-6-3(8)7-2/h1H,(H3,4,5,6,7,8)	InChI=1S/C3H4N4O/c4-2-5-1-6-3(8)7-2/h1H,(H3,4,5,6,7,8)
