16
gdb 4506	3.56527	1.76299	1.19728	2.8426	69.27	-0.1833	0.0352	0.2186	992.6438	0.130486	-379.979692	-379.971214	-379.970269	-380.012918	30.166	
C	 0.0090059588	 1.4534906603	 0.0045952279	-0.497888
C	 0.0273934722	-0.0376611986	-0.0314071689	 0.336444
N	 0.0275056612	-0.784513574	-1.1219201575	-0.380832
C	 0.0480486532	-2.0771841152	-0.6786319756	 0.266701
O	 0.0537548327	-3.1207142398	-1.5447422685	-0.4457
C	 0.0610405279	-2.1560136877	 0.6892116446	 0.210281
C	 0.0840593417	-3.3081825671	 1.6308196501	-0.515395
N	 0.047391196	-0.8182688367	 1.0828200234	-0.33823
H	 0.895670345	 1.8633032564	 0.5028368728	 0.129983
H	-0.0110096616	 1.8272892125	-1.0198536106	 0.15521
H	-0.8723804669	 1.8408000189	 0.5294121167	 0.129751
H	 0.0406467139	-2.732374488	-2.4273463125	 0.297105
H	 0.9757375705	-3.3121296223	 2.2715196546	 0.121906
H	-0.7932841776	-3.3316594641	 2.2905825983	 0.121829
H	 0.0881376812	-4.236929012	 1.0557031605	 0.152792
H	 0.0515643316	-0.4917117426	 2.0344934846	 0.256042
50.9133	112.7418	171.3224	235.7765	244.8287	284.362	343.1602	348.0332	483.4427	501.0643	609.5738	655.6487	668.722	727.3984	818.1266	969.3258	1020.1866	1046.6382	1057.6074	1067.2122	1141.0593	1220.8349	1282.2795	1341.4687	1409.9103	1414.0388	1440.8708	1465.1254	1482.1154	1482.5316	1498.1847	1511.7518	1570.7333	1702.1361	3007.2798	3026.1107	3047.207	3073.1077	3124.3767	3146.7655	3661.9953	3810.8303
CC1=NC(O)=C(C)N1	Cc1nc(O)c(C)[nH]1	
InChI=1S/C5H8N2O/c1-3-5(8)7-4(2)6-3/h8H,1-2H3,(H,6,7)	InChI=1S/C5H8N2O/c1-3-5(8)7-4(2)6-3/h8H,1-2H3,(H,6,7)
