13
gdb 3725	7.26294	1.96676	1.71582	1.9966	54.61	-0.2866	-0.024	0.2625	727.3957	0.103844	-336.811524	-336.805191	-336.804247	-336.842703	21.873	
C	 0.0307239573	 1.5411182623	 0.0759850693	-0.377653
C	-0.0346428108	 0.0112152116	-0.0672849908	-0.275721
C	 0.6655897126	-0.4788644307	-1.2911140858	 0.391842
N	 0.0510635116	-0.9704976884	-2.3636783568	-0.262497
N	 1.084589416	-1.2326289153	-3.1541416715	-0.067035
N	 2.2675042431	-0.937734683	-2.6379193489	-0.10029
N	 2.0182526485	-0.454655884	-1.4498619711	-0.249663
H	 1.069110167	 1.8816549593	 0.1088037212	 0.141667
H	-0.4626030882	 2.0347923692	-0.7666968629	 0.125779
H	-0.465908572	 1.8603258202	 0.9966226345	 0.118859
H	 0.4280915629	-0.4573136928	 0.8078886927	 0.128915
H	-1.0739350936	-0.3254291337	-0.1094974593	 0.125597
H	 0.9830093355	-1.6337668246	-4.0743130805	 0.300201
33.9456	165.5884	219.4406	352.1758	414.3056	574.8481	669.8125	737.5033	776.3613	804.76	977.4624	1030.5598	1064.9814	1079.9106	1093.113	1127.3632	1192.222	1259.7267	1283.7303	1349.2643	1367.7892	1408.1998	1472.5053	1480.6009	1497.3781	1508.0373	1548.0041	3044.0054	3053.3808	3099.2509	3117.4181	3127.9745	3650.6258
CCC1=NNN=N1	CCc1n[nH]nn1	
InChI=1S/C3H6N4/c1-2-3-4-6-7-5-3/h2H2,1H3,(H,4,5,6,7)	InChI=1S/C3H6N4/c1-2-3-4-6-7-5-3/h2H2,1H3,(H,4,5,6,7)
