17
gdb 4040	3.44618	1.50915	1.23497	0.8852	68.02	-0.237	0.0063	0.2432	1012.1215	0.139406	-400.943819	-400.934945	-400.934	-400.977403	32.715	
C	-0.9712250594	 1.1287294304	 0.1061546016	-0.479299
C	 0.0110495712	-0.0091773091	 0.0303184031	 0.27725
N	 0.692826789	-0.4407128229	 1.0227232862	-0.17472
O	 0.3868174379	 0.2569981598	 2.2022455213	-0.398976
C	 0.1894636906	-0.7118335771	-1.2795947271	 0.334505
O	 0.2330468145	 0.1495360443	-2.3910148295	-0.458546
C	 0.9402634618	-2.0123812942	-1.3709119185	-0.322604
C	-0.5637014319	-1.9931081996	-1.53401299	-0.284133
H	-0.5102706986	 1.9990221799	 0.5822110955	 0.142158
H	-1.3235104826	 1.3977617576	-0.8891346596	 0.13883
H	-1.824897074	 0.848141523	 0.7328686844	 0.143342
H	 0.9786415812	-0.1560654735	 2.8397827222	 0.304891
H	 1.0852697396	 0.6001468978	-2.3768651971	 0.284693
H	 1.5312994697	-2.1546131432	-2.2684511363	 0.112922
H	 1.3603252114	-2.4203702594	-0.4608740782	 0.135049
H	-1.1728437271	-2.3921322344	-0.7312534893	 0.121316
H	-0.9667581135	-2.1156657594	-2.5329362986	 0.123322
50.5642	89.4528	173.6095	216.2771	296.9576	334.9317	343.5607	378.8635	383.7641	446.9372	522.2577	533.2761	589.2773	741.9121	778.0675	875.0313	912.7735	930.9939	962.9827	991.4699	1040.718	1047.3896	1056.4245	1079.0038	1166.9911	1193.3844	1264.1847	1324.0669	1359.6788	1395.132	1410.2214	1448.6097	1477.0804	1486.4268	1489.9681	1717.6838	3045.8852	3101.7486	3139.8352	3148.106	3159.6727	3230.5367	3247.9056	3788.7284	3819.778
CC(=NO)C1(O)CC1	CC(=NO)C1(O)CC1	
InChI=1S/C5H9NO2/c1-4(6-8)5(7)2-3-5/h7-8H,2-3H2,1H3	InChI=1S/C5H9NO2/c1-4(6-8)5(7)2-3-5/h7-8H,2-3H2,1H3
