11
gdb 1831	6.67684	2.30384	1.73163	1.4121	49.76	-0.2671	-0.0122	0.2549	655.7217	0.080471	-376.631067	-376.625417	-376.624473	-376.660653	20.584	
N	-0.0623244311	 1.3151899809	 0.0084678317	-0.569615
C	-0.0056683189	 0.0579209823	 0.0011414721	 0.488781
N	-1.1118254262	-0.7843225596	 0.0030712288	-0.363277
C	-0.7790320933	-2.1189254444	-0.0063456654	 0.412547
O	-1.5170304452	-3.0692528719	-0.0072133245	-0.34679
C	 0.7495264765	-2.1058808962	-0.0153756543	-0.219098
O	 1.1155290046	-0.7228879353	-0.0098923961	-0.241085
H	 0.8727853514	 1.7173068868	 0.0051166334	 0.23663
H	-2.0542875502	-0.4282680491	 0.0106685212	 0.288907
H	 1.1520550048	-2.6057402967	 0.8709402415	 0.1565
H	 1.1414444276	-2.5958637668	-0.9119018283	 0.156499
139.6834	184.3848	376.9426	527.4442	543.7942	608.1704	646.9667	696.0593	718.8148	819.3568	900.8214	931.8866	1025.057	1045.2967	1098.9737	1200.5605	1228.0911	1332.5999	1357.3936	1412.3294	1492.2557	1806.6343	1875.8441	3057.9663	3105.0369	3528.2253	3662.1404
N=C1NC(=O)CO1	[NH][C]1NC(=O)CO1	
InChI=1S/C3H4N2O2/c4-3-5-2(6)1-7-3/h1H2,(H2,4,5,6)	InChI=1S/C3H4N2O2/c4-3-5-2(6)1-7-3/h1H2,(H2,4,5,6)
