17
gdb 2363	4.92833	1.87036	1.4747	2.5319	60.01	-0.2417	0.0647	0.3064	840.2379	0.147529	-346.829131	-346.82134	-346.820396	-346.861508	27.652	
C	-0.1497690253	 1.5130588125	-0.004900398	-0.411678
C	 0.0320797931	-0.0050076367	-0.0159409925	 0.117491
O	 0.7763952324	-0.4332615774	-1.1543142937	-0.440357
C	 0.8029937635	-0.5098088941	 1.1935911327	-0.00134
C	 0.0467809462	-0.5345680747	 2.5397586728	-0.091257
O	 0.0825679902	-1.9733355923	 2.5901482157	-0.274828
C	 0.8488687052	-2.0422232018	 1.3666847238	-0.084676
H	 0.8242680006	 2.0125452534	-0.0109715032	 0.125739
H	-0.7096617172	 1.8452195988	-0.8866550195	 0.107564
H	-0.7062973086	 1.8407499197	 0.8794384175	 0.120894
H	-0.9617630715	-0.4858662123	-0.0145747753	 0.06806
H	 0.3124696046	-0.1376254062	-1.9439616242	 0.282274
H	 1.7811576751	-0.0232255758	 1.2258643623	 0.081588
H	 0.5741645903	-0.0789894804	 3.3875036321	 0.098508
H	-0.9818077394	-0.1484627516	 2.5188229401	 0.095044
H	 0.3371161904	-2.6181600569	 0.5867038966	 0.107475
H	 1.8442385604	-2.4718381644	 1.5315248029	 0.099499
56.6086	96.4712	185.6246	246.0895	277.7357	325.368	348.2132	466.4464	484.1703	774.865	846.6319	888.5472	908.5708	967.2422	987.477	1022.7761	1046.2771	1070.05	1104.9636	1135.8948	1150.5513	1163.1844	1173.4781	1256.9204	1279.2444	1309.9735	1331.0947	1375.8226	1385.3744	1404.9239	1435.4172	1493.5262	1499.2244	1513.7222	1539.9681	2948.2333	2998.8798	3021.9716	3028.2512	3038.9167	3062.3186	3081.8864	3094.3371	3111.6739	3818.7345
CC(O)C1COC1	C[C@@H](O)C1COC1	
InChI=1S/C5H10O2/c1-4(6)5-2-7-3-5/h4-6H,2-3H2,1H3	InChI=1S/C5H10O2/c1-4(6)5-2-7-3-5/h4-6H,2-3H2,1H3/t4-/m1/s1
