17
gdb 4564	5.48827	1.45146	1.15745	1.4472	80.62	-0.1929	0.0092	0.2021	1030.645	0.144054	-326.802408	-326.79471	-326.793766	-326.835041	29.24	
C	 0.0132950122	 1.5336382812	 0.0102601521	-0.494215
C	-0.0113975174	 0.0245745577	 0.002273801	 0.290656
C	-0.0172116574	-0.6965311817	-1.1946141036	-0.17103
C	-0.0094155133	-2.0859579696	-1.210255007	-0.17068
C	 0.00147981	-2.8129824039	-0.0132208476	 0.303788
N	-0.0578241272	-4.2111790746	-0.0205122274	-0.590971
C	 0.0042907474	-2.0990332633	 1.1916645839	-0.170717
C	-0.0035994486	-0.7094840085	 1.1912056246	-0.17111
H	 1.039278639	 1.9239471337	 0.0024478521	 0.126137
H	-0.4942550137	 1.9466935924	-0.8669966846	 0.120547
H	-0.4771931371	 1.9369484559	 0.9016132458	 0.120481
H	-0.027361352	-0.160308606	-2.1397141949	 0.083198
H	-0.0204873364	-2.6172164255	-2.1579648048	 0.077284
H	 0.3126125545	-4.6394733843	-0.8569459916	 0.243073
H	 0.3220739111	-4.6485501995	 0.806932646	 0.243075
H	 0.0040065294	-2.6405465707	 2.1336163448	 0.077277
H	-0.0029267105	-0.1835596233	 2.1421249011	 0.083207
25.7036	142.2822	282.8521	297.6586	325.7716	406.7618	416.3996	466.7207	516.4967	628.3465	656.5257	725.8942	755.2536	830.8181	833.3891	852.8873	930.5862	941.0298	1000.7459	1026.9772	1062.2813	1095.3645	1152.7966	1205.3068	1236.2062	1308.036	1335.1172	1354.6442	1413.6311	1459.2494	1487.5457	1499.9248	1553.8292	1620.0287	1651.3112	1667.6185	3019.588	3076.4055	3105.7552	3154.0922	3154.3121	3170.6075	3174.2081	3557.1359	3654.1061
CC1=CC=C(N)C=C1	Cc1ccc(N)cc1	
InChI=1S/C7H9N/c1-6-2-4-7(8)5-3-6/h2-5H,8H2,1H3	InChI=1S/C7H9N/c1-6-2-4-7(8)5-3-6/h2-5H,8H2,1H3
