12
gdb 4615	5.80756	1.60241	1.25589	2.8623	61.74	-0.2111	-0.067	0.1441	867.6732	0.085892	-414.715899	-414.709641	-414.708697	-414.746214	23.999	
O	-0.0054131968	 1.3864753172	 0.0084222219	-0.431219
C	-0.0222853507	 0.0307566609	 0.0011462668	 0.392842
C	-1.1978301729	-0.6569647872	 0.0042431752	-0.089182
N	-1.1435370737	-2.0254561898	-0.0035094104	-0.328122
C	 0.033052614	-2.7755709004	-0.0144216475	 0.387534
O	 0.0311855394	-3.9956777482	-0.0210669345	-0.395872
C	 1.2125076834	-1.9073276498	-0.0165822678	-0.105992
N	 1.1778863395	-0.6071317507	-0.0093101381	-0.29431
H	 0.926113954	 1.6415249679	 0.0043721261	 0.301987
H	-2.1703755753	-0.1851793347	 0.0124620961	 0.148659
H	-1.9981913635	-2.5653994252	-0.0014804397	 0.271844
H	 2.1787432625	-2.4044746398	-0.0249174381	 0.14183
123.3069	336.1075	360.6954	390.3104	415.6337	450.7589	515.4213	530.4231	638.3544	716.4359	775.7735	811.2089	839.3662	846.9718	942.4829	986.3321	1139.1563	1210.224	1220.146	1327.6908	1380.3695	1415.6895	1479.0667	1565.9335	1696.6575	1782.6358	3175.0654	3232.1119	3606.4739	3791.4996
OC1=CNC(=O)C=N1	Oc1c[nH]c(=O)cn1	
InChI=1S/C4H4N2O2/c7-3-1-5-4(8)2-6-3/h1-2H,(H,5,8)(H,6,7)	InChI=1S/C4H4N2O2/c7-3-1-5-4(8)2-6-3/h1-2H,(H,5,8)(H,6,7)
