15
gdb 3190	4.59024	2.29476	1.90219	1.3454	56.62	-0.2582	0.0714	0.3296	705.7158	0.123889	-345.608193	-345.601232	-345.600288	-345.638988	25.979	
O	 0.3127198698	 1.4854405624	 0.1746508602	-0.45899
C	 0.087748293	 0.115363838	-0.0368271479	 0.373469
C	 0.9824000455	-0.5421394081	-1.038284498	-0.299172
C	 1.1318260448	-0.8640196179	 0.4365939028	-0.323535
C	-1.3652875216	-0.2584810151	 0.0361576703	 0.014568
C	-2.2147721372	-0.3390566697	-1.1570292402	-0.172182
O	-1.7383978675	-1.5235598155	-0.5048990255	-0.232449
H	 0.234488235	 1.6576573555	 1.1196031071	 0.283294
H	 0.5523484251	-1.3062690635	-1.6747634591	 0.131064
H	 1.7356990353	 0.0888254984	-1.4944988316	 0.121865
H	 1.9911766453	-0.4524776207	 0.9545482605	 0.112604
H	 0.8028328041	-1.8393690144	 0.7776708194	 0.126591
H	-1.8478336392	-0.0202303802	 0.9878478749	 0.084343
H	-3.2860687851	-0.1645423541	-1.0745316373	 0.117332
H	-1.7767659271	-0.1387525851	-2.1327609356	 0.121198
87.2741	212.493	226.5657	281.7828	342.4253	386.5025	497.7098	526.8413	676.8366	783.7911	865.7107	883.0794	901.5619	935.4568	954.5108	994.2921	1050.4565	1056.389	1089.1828	1098.6809	1152.4066	1170.093	1196.6938	1261.348	1283.3551	1285.6338	1383.8162	1439.7143	1444.3506	1494.717	1525.616	3072.222	3092.3879	3134.115	3147.2983	3182.8202	3224.2865	3243.9338	3794.823
OC1(CC1)C1CO1	OC1(CC1)[C@H]1CO1	
InChI=1S/C5H8O2/c6-5(1-2-5)4-3-7-4/h4,6H,1-3H2	InChI=1S/C5H8O2/c6-5(1-2-5)4-3-7-4/h4,6H,1-3H2/t4-/m1/s1
