17
gdb 2936	5.92009	1.91663	1.57773	1.4309	66.13	-0.2295	0.0185	0.248	819.6131	0.148569	-309.726463	-309.719311	-309.718367	-309.757828	26.074	
C	-0.1350065691	 1.5235538794	 0.0515868516	-0.380248
C	-0.023943833	-0.002590423	 0.0309577158	-0.173097
C	 0.8625857855	-0.547456236	 1.158030147	 0.102881
O	 0.3304082209	-0.1719345844	 2.4362033382	-0.277133
C	 0.1268595307	-1.3206606812	 3.2529804727	-0.112386
C	 0.5197592365	-2.4885170693	 2.3927163602	-0.09653
C	 0.945357704	-2.0500114419	 1.2145608158	-0.092827
H	 0.8461442572	 1.9929917907	-0.0829156006	 0.110321
H	-0.7899916012	 1.8835027868	-0.7475834685	 0.107583
H	-0.5399745618	 1.8633533841	 1.0083411855	 0.135502
H	-1.0172094712	-0.4579617591	 0.123598662	 0.097599
H	 0.3934795174	-0.3390092019	-0.9272736646	 0.08879
H	 1.867566296	-0.1001838439	 1.0536743423	 0.075161
H	 0.7423834838	-1.2492631417	 4.1647854667	 0.102688
H	-0.9241197242	-1.367911619	 3.5788442552	 0.104349
H	 0.457618788	-3.5172637404	 2.7244633822	 0.10455
H	 1.3035403905	-2.6482302393	 0.3861758082	 0.102798
85.3079	110.4875	195.4085	233.0941	330.0247	420.9085	492.1854	696.1444	745.3189	779.8406	817.7367	871.3599	926.7365	943.9471	958.947	1009.9218	1038.402	1046.6239	1086.8982	1119.3139	1137.8645	1139.5019	1199.2899	1287.5585	1293.1893	1339.401	1360.7274	1387.8112	1390.9939	1407.2539	1475.5999	1496.2159	1509.0995	1522.3241	1692.3719	2935.9285	2967.7864	2986.9234	3021.0652	3035.1569	3062.5679	3100.4362	3122.8556	3204.4607	3229.3087
CCC1OCC=C1	CC[C@H]1OCC=C1	
InChI=1S/C6H10O/c1-2-6-4-3-5-7-6/h3-4,6H,2,5H2,1H3	InChI=1S/C6H10O/c1-2-6-4-3-5-7-6/h3-4,6H,2,5H2,1H3/t6-/m1/s1
