11
gdb 756	9.26884	3.6096	2.61073	3.385	47.71	-0.206	0.038	0.244	473.2325	0.087866	-281.48553	-281.480242	-281.479298	-281.513921	19.271	
N	 0.0945091099	 1.4013273935	 0.1533928118	-0.603159
C	-0.0388652736	 0.014313395	 0.0391425227	 0.380914
C	-1.1432569882	-0.817120119	-0.0053269876	-0.281618
C	-0.5990640673	-2.1214472973	-0.034163905	 0.005903
N	 0.7265409312	-2.1203997919	-0.016182716	-0.237287
N	 1.0462932692	-0.8002075427	 0.0347584998	-0.23253
H	 0.7254531178	 1.8011927481	-0.5318560063	 0.249763
H	-0.8006717544	 1.8665173187	 0.0846409735	 0.255706
H	-2.1791877354	-0.5202098362	-0.0286336886	 0.090242
H	-1.13020211	-3.0615746296	-0.0779469388	 0.105263
H	 2.0112595708	-0.5307168887	 0.1201701845	 0.266803
159.5443	288.4519	376.1886	458.4792	663.4645	674.3477	691.4846	748.079	786.8776	890.365	932.14	1041.5335	1062.1612	1098.638	1129.6258	1253.5874	1326.4856	1385.5115	1449.6095	1539.4252	1619.6135	1659.6942	3238.2983	3265.4738	3527.4401	3625.6753	3676.335
NC1=CC=NN1	Nc1ccn[nH]1	
InChI=1S/C3H5N3/c4-3-1-2-5-6-3/h1-2H,(H3,4,5,6)	InChI=1S/C3H5N3/c4-3-1-2-5-6-3/h1-2H,(H3,4,5,6)
