20
gdb 1790	3.1918	2.36991	1.75129	1.1668	71.43	-0.2181	0.082	0.3001	840.242	0.181796	-291.018995	-291.010463	-291.009519	-291.05111	31.765	
C	-0.2259370199	 1.4451209071	 0.0993417996	-0.385979
C	 0.2584213666	-0.0113831344	 0.1225104761	-0.24508
C	 0.7941744571	-0.5267850456	-1.2092761795	 0.354983
C	 2.0059200208	 0.2123416917	-1.7484211453	-0.443328
C	 0.6621426588	-1.9880988595	-1.5006824967	-0.298616
N	-0.1055794603	-1.0119310467	-2.2669373461	-0.108375
C	-1.5500898647	-1.004647703	-2.1036606881	-0.314409
H	 0.5822555771	 2.1381854525	-0.1518556175	 0.121223
H	-1.026319543	 1.5895189593	-0.6331076707	 0.12088
H	-0.6149404457	 1.7366083486	 1.0799078638	 0.112485
H	 1.0595407012	-0.11273031	 0.8664284711	 0.099055
H	-0.5520102818	-0.6576106477	 0.4733875416	 0.096731
H	 2.8296323207	 0.1940875021	-1.0251393142	 0.108065
H	 2.3472620982	-0.2494410079	-2.6776472204	 0.12279
H	 1.7720094133	 1.2595654344	-1.9658565911	 0.117811
H	 1.4381902115	-2.5235532729	-2.0439438883	 0.104912
H	 0.1267176728	-2.5934554843	-0.7683055745	 0.096726
H	-1.9071655551	-1.2525565901	-1.0918682238	 0.09792
H	-1.9447371271	-0.0197717356	-2.3747453701	 0.120975
H	-1.9803144005	-1.738025108	-2.794114026	 0.12123
97.2427	174.8664	189.3514	216.1459	228.2786	291.0915	303.1846	373.435	412.797	447.7619	518.9231	680.9939	743.0937	788.4928	887.6569	913.3854	977.0568	1010.0805	1028.5308	1063.1193	1081.2166	1118.1583	1141.6013	1155.7008	1180.7771	1208.3009	1273.1908	1301.089	1351.868	1396.9355	1413.712	1418.7354	1447.3244	1476.9729	1485.9803	1492.6389	1495.1932	1504.5299	1507.3326	1512.4556	1516.3081	2976.3825	3024.2685	3032.5835	3041.9519	3059.4121	3070.6725	3075.212	3093.7302	3094.9318	3107.6709	3115.5715	3123.2129	3158.0098
CCC1(C)CN1C	CC[C@@]1(C)CN1C	
InChI=1S/C6H13N/c1-4-6(2)5-7(6)3/h4-5H2,1-3H3	InChI=1S/C6H13N/c1-4-6(2)5-7(6)3/h4-5H2,1-3H3/t6-,7?/m0/s1
