13
gdb 4379	3.7085	2.01237	1.3045	0.4018	63.59	-0.2198	-0.0126	0.2072	856.5485	0.098209	-398.68442	-398.678245	-398.6773	-398.714545	24.477	
O	 0.1260565204	 1.3068132072	-0.0120470127	-0.417063
C	 0.0851982844	-0.0412500547	-0.0353677579	 0.443844
C	-0.0284593403	-0.6969491129	-1.2606583866	-0.233588
C	-0.066428581	-2.0860668867	-1.2310761826	-0.044681
C	 0.0070259174	-2.7704102689	-0.0235013636	-0.233587
C	 0.1187218429	-2.0006744213	 1.1337513776	 0.443843
O	 0.1932472516	-2.618919302	 2.3302912485	-0.417063
N	 0.157595578	-0.6690515134	 1.1373958721	-0.46015
H	 0.2051792457	 1.5599594711	 0.9174524121	 0.296672
H	-0.0829064185	-0.1280332563	-2.178860127	 0.107385
H	-0.1542152701	-2.641347078	-2.1592050172	 0.11033
H	-0.0192070187	-3.8496620248	 0.0417032657	 0.107385
H	 0.2647495782	-1.9192579694	 2.9933706415	 0.296672
207.7929	245.4712	340.7692	454.4833	495.3014	504.296	530.3559	554.7684	573.6004	700.3881	760.5775	762.2771	814.4684	865.9934	991.053	1000.8507	1010.7929	1087.6731	1157.6609	1209.6378	1228.862	1313.1648	1377.8349	1389.5237	1513.1607	1519.1721	1633.3314	1673.0159	3186.1123	3223.7431	3227.1827	3776.9557	3778.4567
OC1=CC=CC(O)=N1	Oc1cccc(O)n1	
InChI=1S/C5H5NO2/c7-4-2-1-3-5(8)6-4/h1-3H,(H2,6,7,8)	InChI=1S/C5H5NO2/c7-4-2-1-3-5(8)6-4/h1-3H,(H2,6,7,8)
