15
gdb 1640	4.64127	1.99998	1.42407	1.9489	61.09	-0.2402	-0.0492	0.191	841.3689	0.123055	-341.865856	-341.857456	-341.856512	-341.898618	29.068	
C	 0.0236186544	 1.4270990273	 0.0913842146	-0.341185
N	 0.0259384235	-0.0232343903	 0.0630226778	-0.273613
C	 0.6233628029	-0.5872251795	-0.9188661896	 0.259015
N	 1.2981834277	-0.0031621753	-1.955710017	-0.549367
C	 0.644692583	-2.1037419879	-0.9816602995	 0.369608
C	 0.0405486508	-2.8565983495	 0.1755947111	-0.472157
O	 1.1363734186	-2.6497660646	-1.9482179127	-0.319375
H	 1.0433428355	 1.8433876371	 0.0776812392	 0.118364
H	-0.5150642966	 1.8581844635	-0.7689619385	 0.110567
H	-0.4740967495	 1.7776420672	 0.9984790812	 0.12699
H	 1.1196530326	 0.9577980627	-2.1901946744	 0.257774
H	 1.5536342721	-0.6300512767	-2.7046742936	 0.269823
H	-0.9907195114	-2.5340375303	 0.3386747062	 0.157379
H	 0.0870151885	-3.9270743605	-0.0263127998	 0.132278
H	 0.5809159579	-2.6185352332	 1.0966449451	 0.153899
67.4619	109.2767	143.6634	195.9865	210.5827	314.8465	340.3054	405.5687	497.3359	507.0712	574.0214	611.8057	718.0874	780.2464	975.5833	993.0124	1037.451	1101.5653	1106.7864	1196.5769	1202.3285	1364.191	1393.659	1431.6183	1452.9608	1460.1281	1489.9911	1501.4588	1598.2174	1726.7892	1789.5316	2961.1744	3008.1633	3057.8551	3105.1722	3123.8801	3162.1303	3581.6382	3716.57
CN=C(N)C(C)=O	CN=C(N)C(=O)C	
InChI=1S/C4H8N2O/c1-3(7)4(5)6-2/h1-2H3,(H2,5,6)	InChI=1S/C4H8N2O/c1-3(7)4(5)6-2/h1-2H3,(H2,5,6)
