16
gdb 2989	5.21453	1.86628	1.48246	3.8044	62.16	-0.2393	0.0279	0.2672	829.085	0.136585	-325.784331	-325.776816	-325.775871	-325.816093	26.632	
C	-0.3997381226	 1.2372575446	 0.0116755554	-0.340311
N	 0.1007900572	-0.1260126621	 0.0967621652	-0.048509
C	 0.6506124253	-0.570361998	 1.2682077495	 0.152963
O	 0.6801047833	 0.0489481738	 2.3111495975	-0.342024
C	 0.2330488134	-0.8697882786	-1.1203825975	 0.029162
C	-0.1322887612	-2.3313311049	-1.160144873	-0.276775
C	-1.0100646578	-1.3191430712	-1.849253619	-0.266794
H	 0.2496468022	 1.8570744754	-0.6197487554	 0.122222
H	-1.4076180185	 1.2498291989	-0.4148929577	 0.124372
H	-0.4177565396	 1.6502760817	 1.0200348594	 0.16652
H	 1.0650507426	-1.5893185592	 1.1611718658	 0.078766
H	 1.0666127275	-0.5616163159	-1.7515565133	 0.098592
H	 0.4861218188	-2.9873417845	-1.7616850748	 0.124593
H	-0.5153631443	-2.7821455903	-0.2527820726	 0.130184
H	-1.9640454602	-1.0966686716	-1.3848969371	 0.125974
H	-1.0089250361	-1.2720529582	-2.9319678323	 0.121064
88.6415	127.5463	155.7824	211.2392	318.4077	339.0361	399.6505	468.9995	621.1182	779.481	834.0032	840.1809	920.3705	959.0216	1036.9758	1048.9937	1064.6514	1086.7037	1128.2687	1139.5738	1163.0658	1198.0136	1216.6515	1294.7273	1381.1682	1405.3843	1438.2625	1441.6522	1462.9223	1496.6443	1499.9926	1515.9382	1793.5964	2967.6852	3020.5073	3080.6249	3095.1719	3141.5984	3148.2914	3159.3102	3224.9479	3239.0233
CN(C=O)C1CC1	CN(C=O)C1CC1	
InChI=1S/C5H9NO/c1-6(4-7)5-2-3-5/h4-5H,2-3H2,1H3	InChI=1S/C5H9NO/c1-6(4-7)5-2-3-5/h4-5H,2-3H2,1H3
