13
gdb 3146	4.20929	2.75775	1.92741	3.2759	55.14	-0.2457	-0.0403	0.2054	661.7555	0.10069	-344.433965	-344.427666	-344.426722	-344.464308	22.892	
O	 0.0051230319	 0.1422063938	-0.6431784571	-0.292069
C	 0.0029246542	 1.2514055898	-0.1991569197	 0.334424
C	-1.0756192509	 2.1921654879	 0.3883783339	-0.346529
C	-0.0286211408	 3.3508051181	 0.3760106202	-0.336599
C	 1.0599124753	 2.3375004805	-0.0189005702	 0.34773
C	 2.4323475025	 2.1621751673	 0.4870006301	-0.245328
O	 2.1728373542	 2.5676019492	-0.8545643366	-0.251503
H	-1.9558927039	 2.3218382449	-0.245298193	 0.140095
H	-1.4047211727	 1.8811854689	 1.3838593756	 0.138003
H	-0.2114616439	 4.0852705609	-0.4112938315	 0.130552
H	 0.1256521543	 3.8703276537	 1.3227697709	 0.118046
H	 2.8510964644	 2.9276805818	 1.13891001	 0.126046
H	 2.8345159053	 1.1571618332	 0.6026376375	 0.137133
87.7071	199.8903	239.8586	323.7941	467.7127	522.1251	620.8142	707.6351	755.4266	835.2998	873.137	909.0032	961.8406	1020.2548	1045.0781	1093.9021	1130.8161	1140.9167	1160.7923	1212.5618	1222.7315	1245.4825	1406.4147	1441.1241	1484.0484	1518.8763	1896.1128	3069.4811	3080.7452	3084.7513	3120.5097	3138.1022	3180.6646
O=C1CCC11CO1	O=C1CC[C@]21CO2	
InChI=1S/C5H6O2/c6-4-1-2-5(4)3-7-5/h1-3H2	InChI=1S/C5H6O2/c6-4-1-2-5(4)3-7-5/h1-3H2/t5-/m1/s1
