11
gdb 1019	9.38813	1.91752	1.5923	0.4381	60.39	-0.2252	-0.0079	0.2173	710.3239	0.078918	-306.112153	-306.106413	-306.105469	-306.141522	21.562	
C	 0.0254034736	-1.1992388588	-0.0038760786	-0.445638
C	 0.0028650488	 0.0045507095	 0.0028765356	 0.241098
C	-0.0014047306	 1.418166034	 0.0105696108	 0.12724
C	-1.0943927635	 2.2411704096	 0.029435149	-0.105506
O	-0.7163156649	 3.5389996688	 0.0314314835	-0.134152
C	 0.6456465252	 3.560617378	 0.0136130912	 0.012228
C	 1.1418949103	 2.3008557901	 0.0003156857	-0.300009
H	 0.0383596419	-2.2607345257	-0.009720406	 0.190231
H	-2.1538342225	 2.0487325434	 0.0423592339	 0.148128
H	 1.0967718625	 4.5386792209	 0.012940181	 0.143502
H	 2.1784859992	 2.0061002104	-0.0149054359	 0.122878
164.6898	174.0909	461.1856	521.4756	564.2348	572.1426	616.8642	652.7533	659.3527	739.3876	795.3702	841.7136	890.5421	984.6034	1050.5478	1108.4813	1203.2782	1254.9744	1279.8433	1374.3259	1538.0824	1605.1635	2237.3056	3266.7096	3285.9305	3293.0356	3505.0779
C#CC1=COC=C1	C#Cc1cocc1	
InChI=1S/C6H4O/c1-2-6-3-4-7-5-6/h1,3-5H	InChI=1S/C6H4O/c1-2-6-3-4-7-5-6/h1,3-5H
