10
gdb 3845	6.21933	2.97822	2.01386	0.1101	52.13	-0.2583	-0.0995	0.1588	571.9005	0.069525	-351.646368	-351.641162	-351.640218	-351.675535	18.7	
N	-0.107276632	 1.336160907	 0.0084142959	-0.545036
C	 0.0381415251	 0.0766265471	 0.0011358675	 0.449774
N	-1.1168710464	-0.7297077064	 0.0035635721	-0.208885
N	-1.1559827613	-2.0508561054	-0.0029572335	-0.005757
N	-0.0535269348	-2.6970764588	-0.0125691018	-0.212985
C	 1.1156113262	-1.9365919418	-0.0155878069	 0.111523
N	 1.2286192541	-0.653676193	-0.0095422924	-0.271599
H	 0.8091150043	 1.7815367289	 0.0053980883	 0.237142
H	-2.0207998225	-0.2742907465	 0.0110466342	 0.296734
H	 2.0214829172	-2.538420991	-0.0235584934	 0.149087
103.8377	347.8532	428.4191	504.942	578.0291	688.4552	746.0386	777.1732	851.2776	860.1418	989.6753	1011.834	1065.025	1077.6062	1228.1446	1254.8545	1388.1108	1423.161	1525.9782	1635.7016	1754.1109	3170.906	3513.0634	3593.5649
N=C1NN=NC=N1	[NH]c1[nH]nncn1	
InChI=1S/C2H3N5/c3-2-4-1-5-7-6-2/h1H,(H2,3,4,5,6)	InChI=1S/C2H8N5/c3-2-4-1-5-7-6-2/h2-7H,1H2
