19
gdb 1143	4.892	1.76411	1.66978	1.3766	67.58	-0.2514	0.0746	0.3259	856.6259	0.170224	-310.919833	-310.911834	-310.910889	-310.951299	30.706	
C	 0.0759642106	 1.5915088241	 0.0318195402	-0.405598
C	 0.0644686554	 0.0705233876	 0.0235499068	 0.060097
C	 1.0813387924	-0.6756705118	-0.8868200565	-0.267625
C	 1.3213503485	-1.6986915676	 0.2501837539	 0.426988
C	 0.5371819454	-2.9976449103	 0.093992272	-0.445581
O	 2.7025417041	-1.9593482505	 0.4301180494	-0.476106
C	 0.6672770063	-0.6859621518	 1.2418030322	-0.29094
H	 1.0839310984	 1.9738898681	 0.2288863276	 0.112975
H	-0.2520691097	 1.9981751283	-0.9316411083	 0.112643
H	-0.5896220191	 1.991419897	 0.8052587267	 0.111826
H	-0.9518660906	-0.2871614146	-0.1751090373	 0.067405
H	 0.7331804693	-1.0610926789	-1.8490007362	 0.09051
H	 1.9869962017	-0.0831510141	-1.0449544014	 0.106659
H	 0.9385728136	-3.5856285803	-0.7374353	 0.122216
H	 0.6016706171	-3.6026213567	 1.0077937468	 0.102791
H	-0.5235806001	-2.8064993397	-0.0969820241	 0.118123
H	 2.7955087651	-2.6072197738	 1.1372639286	 0.27035
H	 1.4449251974	-0.0940022232	 1.7336015412	 0.098699
H	-0.0203779056	-1.0779606817	 1.9973098383	 0.084569
93.8748	229.3701	246.8865	267.7166	272.2584	318.4836	323.4182	414.7175	442.463	458.621	580.697	740.8568	828.0683	859.1864	888.8784	917.343	950.6082	954.728	980.2576	1035.2892	1087.489	1119.935	1144.5743	1194.3584	1216.1672	1226.2084	1271.4017	1289.2957	1292.0112	1370.7686	1381.8079	1407.1145	1410.7504	1467.4115	1486.8061	1490.5074	1495.1894	1496.9072	1501.912	3017.8495	3021.6902	3038.4148	3044.9568	3054.7499	3084.844	3088.0376	3091.2033	3103.9256	3109.0045	3112.3503	3798.1515
CC1CC(C)(O)C1	C[C@H]1C[C@@](C)(O)C1	
InChI=1S/C6H12O/c1-5-3-6(2,7)4-5/h5,7H,3-4H2,1-2H3	InChI=1S/C6H12O/c1-5-3-6(2,7)4-5/h5,7H,3-4H2,1-2H3/t5-,6+
