19
gdb 2361	4.86109	1.80325	1.41326	1.3258	67.63	-0.2609	0.0762	0.3371	899.7362	0.171308	-310.910909	-310.90298	-310.902035	-310.942851	29.499	
C	 0.028111867	 1.5366531012	-0.0589382469	-0.407662
C	 0.0307813641	 0.0120605411	 0.0626073716	 0.110574
O	 0.6010868323	-0.4098121543	 1.3006815886	-0.440831
C	-1.3672551554	-0.5794012865	 0.0150136645	 0.088638
C	-2.1682076482	-0.5098176697	-1.3156998666	-0.237429
C	-2.67940063	-1.9501901815	-1.0385120524	-0.214658
C	-1.5189912553	-2.1248149558	-0.0215590739	-0.224832
H	 1.0495189969	 1.9343379646	-0.029926502	 0.101364
H	-0.4239056917	 1.857324025	-1.0031507751	 0.119791
H	-0.5348493924	 1.9826466716	 0.767350234	 0.122207
H	 0.6100241385	-0.4105088593	-0.7779984468	 0.053359
H	 1.4860287319	-0.0367032486	 1.3627843847	 0.278446
H	-1.9531683288	-0.1599494233	 0.8411722572	 0.070976
H	-2.9094948197	 0.285457199	-1.4266266336	 0.093985
H	-1.4983053692	-0.4807587975	-2.1822662013	 0.095187
H	-3.6554683972	-1.9439565207	-0.5447414137	 0.100585
H	-2.7255705851	-2.6418202145	-1.8830503394	 0.093382
H	-0.6434732883	-2.5961368937	-0.4798354128	 0.096909
H	-1.7316051394	-2.635271667	 0.9196586338	 0.10001
88.9394	128.6209	172.8883	245.7028	277.7265	329.3899	348.8129	450.2142	489.0453	639.1028	762.1894	784.6203	880.9233	902.8052	933.3195	950.7661	965.1922	1000.3624	1036.2826	1071.5789	1104.7417	1136.5049	1166.1145	1206.223	1227.9382	1257.2687	1260.2135	1273.1798	1290.6333	1294.7523	1345.4242	1373.1653	1403.4548	1434.7167	1478.8269	1486.5397	1492.861	1499.7232	1510.7883	2936.8454	3025.5202	3039.1061	3042.9407	3054.6953	3057.4125	3091.2629	3094.6656	3105.6839	3110.8145	3119.4777	3815.3698
CC(O)C1CCC1	C[C@@H](O)C1CCC1	
InChI=1S/C6H12O/c1-5(7)6-3-2-4-6/h5-7H,2-4H2,1H3	InChI=1S/C6H12O/c1-5(7)6-3-2-4-6/h5-7H,2-4H2,1H3/t5-/m1/s1
