15
gdb 1702	4.4388	2.15433	1.8589	1.4015	62.51	-0.2527	0.0414	0.2941	734.2967	0.123569	-308.462063	-308.454771	-308.453827	-308.493184	26.708	
C	-0.0996269209	 1.5603761247	-0.0040773781	-0.450811
C	-0.0180976535	 0.0286911424	-0.0005359066	 0.099475
C	 1.1851454327	-0.5235825665	-0.8253879268	-0.102913
O	 1.9435817762	-0.7775462372	 0.3701445161	-0.269169
C	 0.7952455976	-0.5396481994	 1.2030598815	-0.102914
C	-1.3092522449	-0.5844661834	-0.2535571969	 0.27502
C	-2.3786170349	-1.09313654	-0.4632234416	-0.460141
H	 0.888950995	 1.9881047915	 0.1893299103	 0.127408
H	-0.455307348	 1.9272158193	-0.9712747957	 0.12912
H	-0.7895907243	 1.9134427426	 0.767832394	 0.12912
H	 0.9615864871	-1.4436809613	-1.378512594	 0.107993
H	 1.680098828	 0.1953764424	-1.4883660297	 0.106579
H	 1.007043356	 0.1676454708	 2.0131821125	 0.106578
H	 0.3852672737	-1.4674270794	 1.6197743507	 0.107993
H	-3.3215243698	-1.5452093867	-0.6483655956	 0.196662
93.4218	175.1894	177.4849	259.4144	330.6593	362.9966	524.908	527.5781	598.8137	626.9634	634.9322	842.2618	915.1239	920.1184	949.3812	975.2234	1016.361	1041.8015	1154.0274	1162.8911	1164.257	1209.7739	1280.204	1304.8161	1367.7898	1410.7388	1489.6429	1495.5357	1510.3756	1534.4209	2233.7493	3013.6314	3023.8254	3038.1223	3069.7836	3071.1006	3114.8369	3116.5689	3501.715
CC1(COC1)C#C	CC1(COC1)C#C	
InChI=1S/C6H8O/c1-3-6(2)4-7-5-6/h1H,4-5H2,2H3	InChI=1S/C6H8O/c1-3-6(2)4-7-5-6/h1H,4-5H2,2H3
