14
gdb 1875	5.13436	2.31829	1.88877	5.0028	53.3	-0.2613	0.0538	0.3151	690.2779	0.115264	-361.770383	-361.763991	-361.763047	-361.800705	23.395	
C	 0.0740040748	 1.5444485875	 0.067866416	-0.399294
C	-0.0553714581	 0.0227851619	-0.0430170518	 0.015501
C	 0.7758043282	-0.5896262225	-1.1944798327	-0.085915
O	 1.9996648961	-1.0188829618	-0.5887066698	-0.236654
C	 1.8290780727	-1.1181652997	 0.7666122924	 0.473057
O	 2.6745179793	-1.5201210568	 1.5148895189	-0.38955
N	 0.5498183617	-0.6958199313	 1.0683451497	-0.361381
H	 1.1264604057	 1.8429980649	 0.10955464	 0.138088
H	-0.3916922628	 2.0333717306	-0.7941261093	 0.124743
H	-0.4232170494	 1.9143173551	 0.9704467402	 0.121843
H	-1.1102313268	-0.2515143381	-0.1494208878	 0.095962
H	 0.2740916646	-1.4569988571	-1.6373939438	 0.120975
H	 1.0099901424	 0.1316355559	-1.9806117403	 0.124571
H	 0.3700427116	-0.4380937986	 2.0257351683	 0.258055
108.3243	177.168	254.5577	338.8532	429.013	496.2187	528.4881	711.2566	736.7181	772.5295	840.8912	928.286	952.8046	977.3903	1040.8891	1089.9559	1144.6867	1162.6898	1218.7083	1242.714	1309.1588	1382.4588	1408.45	1415.9934	1423.826	1493.8561	1495.6406	1520.6651	1894.094	3033.2083	3038.1717	3051.9627	3104.3634	3110.5394	3113.9371	3646.4807
CC1COC(=O)N1	C[C@H]1COC(=O)N1	
InChI=1S/C4H7NO2/c1-3-2-7-4(6)5-3/h3H,2H2,1H3,(H,5,6)	InChI=1S/C4H7NO2/c1-3-2-7-4(6)5-3/h3H,2H2,1H3,(H,5,6)/t3-/m0/s1
