11
gdb 328	5.52804	2.80821	1.98441	3.7481	51.99	-0.2879	0.0116	0.2995	605.1461	0.083296	-248.132701	-248.126157	-248.125213	-248.162616	22.726	
C	-0.0066291391	 1.5533931338	 0.0116512675	-0.3832
C	-0.025686258	 0.0049565115	-0.0317010686	-0.292404
C	-1.3887485181	-0.5282267583	 0.0016892777	 0.337723
C	-2.5153850331	-0.939006641	 0.0460710838	-0.443247
C	 0.703244428	-0.4877982074	-1.213439837	 0.289776
N	 1.2941152314	-0.8537732601	-2.1357618267	-0.31682
H	 1.0235907675	 1.9164347173	 0.0159274978	 0.141746
H	-0.5239821066	 1.964168057	-0.8573784867	 0.152234
H	-0.5127630861	 1.8951903705	 0.9167725408	 0.140923
H	 0.515486786	-0.3695766875	 0.8479880871	 0.160862
H	-3.5090365519	-1.3132901258	 0.0800076943	 0.212407
135.9982	202.2152	214.6189	235.2498	368.7489	481.3565	571.2719	581.8132	647.6178	667.1088	788.959	924.423	1027.766	1076.4096	1136.3999	1296.535	1323.8512	1407.9935	1489.3859	1496.5459	2249.3903	2365.5569	3021.2787	3059.0995	3142.4409	3147.9921	3502.8634
CC(C#C)C#N	C[C@@H](C#C)C#N	
InChI=1S/C5H5N/c1-3-5(2)4-6/h1,5H,2H3	InChI=1S/C5H5N/c1-3-5(2)4-6/h1,5H,2H3/t5-/m0/s1
