15
gdb 2546	2.79435	2.42802	1.49487	3.2632	54.01	-0.247	-0.0337	0.2134	828.2977	0.12219	-382.776658	-382.768333	-382.767389	-382.809889	27.921	
C	-0.2077291154	 1.1641304873	 0.3690522065	-0.242513
O	 0.2040040715	-0.1801543688	 0.2135705671	-0.256333
C	 0.555624322	-0.5284780946	-1.1118518971	 0.008063
C	 1.3107610964	-1.8608408126	-1.0192559741	-0.0779
O	 0.5220676706	-2.8521229826	-0.3946387659	-0.423745
C	-0.6873834763	-0.694883208	-1.9879184272	 0.150786
O	-0.6572640119	-0.6834322886	-3.1897850245	-0.242247
H	 0.5983301755	 1.8618562769	 0.0989002815	 0.118353
H	-1.0897475643	 1.4013789123	-0.2433352622	 0.118186
H	-0.4629822745	 1.3038745263	 1.4216357603	 0.137075
H	 1.2081486975	 0.2287295227	-1.5735395433	 0.092512
H	 1.5443078485	-2.2140102958	-2.027497098	 0.132329
H	 2.2545483491	-1.6876023035	-0.4807170308	 0.100214
H	 0.2534261104	-2.4867826596	 0.4564771903	 0.295301
H	-1.6286363988	-0.8556738512	-1.4161087828	 0.089919
58.2113	102.2483	128.8704	184.2976	204.0358	280.8221	320.5508	402.329	448.2167	540.7895	630.8565	855.2643	900.835	988.5957	1046.4273	1084.1003	1108.0175	1150.492	1182.736	1200.6256	1247.5127	1287.3984	1329.6934	1382.0332	1404.5638	1423.3487	1482.91	1489.1955	1496.5083	1508.1951	1837.5752	2885.4617	2985.9967	2990.2658	3002.2341	3039.1217	3100.7033	3124.7223	3799.4407
COC(CO)C=O	CO[C@@H](CO)C=O	
InChI=1S/C4H8O3/c1-7-4(2-5)3-6/h2,4,6H,3H2,1H3	InChI=1S/C4H8O3/c1-7-4(2-5)3-6/h2,4,6H,3H2,1H3/t4-/m1/s1
