13
gdb 2901	7.02069	2.01523	1.6061	2.5843	57.17	-0.2324	-0.0685	0.1639	730.5308	0.103507	-340.655601	-340.649369	-340.648424	-340.685833	22.152	
O	-0.830997171	 1.2324537374	-0.1446923737	-0.263415
C	 0.2813659713	 0.873098036	 0.1594936737	 0.115192
C	 1.4496042463	 1.7898805919	 0.1585965948	 0.274044
N	 2.6405934291	 1.3726353143	 0.3947157601	-0.28134
C	 3.5017126585	 2.5658211846	 0.2824837083	-0.164561
C	 2.6179148861	 3.670733038	-0.3665864163	-0.182762
N	 1.2791211153	 3.1325542442	-0.0979195896	-0.336803
H	 0.5286369326	-0.1672387807	 0.4429409777	 0.110433
H	 3.8267380169	 2.8550646551	 1.2905839162	 0.123887
H	 4.4015873687	 2.3385928443	-0.2947769203	 0.121222
H	 2.7567982986	 4.653945144	 0.0896888495	 0.118605
H	 2.8068017328	 3.7609524097	-1.4455995268	 0.108968
H	 0.4812395649	 3.4098862512	-0.6500786536	 0.25653
125.5238	172.3395	208.4796	294.2198	491.1507	554.9619	607.8293	732.2117	748.4453	862.0765	917.6687	992.2445	1004.3448	1029.3941	1051.1712	1106.0692	1198.5379	1239.9502	1271.339	1312.1977	1349.5592	1386.9726	1482.8031	1486.7713	1531.2379	1677.8384	1802.8204	2968.2298	3002.5226	3023.8037	3085.4174	3095.0382	3621.1692
O=CC1=NCCN1	O=C[C]1[N]CCN1	
InChI=1S/C4H6N2O/c7-3-4-5-1-2-6-4/h3H,1-2H2,(H,5,6)	InChI=1S/C4H6N2O/c7-3-4-5-1-2-6-4/h3H,1-2H2,(H,5,6)
