19
gdb 3270	3.30587	3.00815	1.80395	1.207	67.02	-0.2417	0.0826	0.3242	759.3113	0.174453	-310.927566	-310.920789	-310.919845	-310.958017	26.296	
C	-0.010933766	 1.4784522345	-0.0616129842	-0.183388
C	 1.3905452501	 2.111154702	 0.0007218091	-0.177112
C	 2.0495237618	 1.9782269263	 1.3842819583	-0.216572
C	 2.7380443896	 0.6253558725	 1.6415451484	-0.060248
O	 2.1295498903	-0.4966927563	 1.0306443548	-0.242357
C	 0.7314522874	-0.6417570719	 1.2220888802	-0.0714
C	-0.0496987629	-0.0523500548	 0.0441324869	-0.178485
H	-0.6179094587	 1.9121764456	 0.7459162195	 0.090137
H	-0.4994463905	 1.7753376787	-0.9975144116	 0.091087
H	 2.0380974606	 1.673022531	-0.7690350511	 0.101644
H	 1.2956059393	 3.1759408671	-0.2415672313	 0.090585
H	 2.808845562	 2.7576925794	 1.5210290469	 0.094893
H	 1.2892226402	 2.1675757758	 2.1524954471	 0.095926
H	 3.7517382414	 0.6420728565	 1.2264776148	 0.105058
H	 2.8342369198	 0.466675537	 2.7288191907	 0.083508
H	 0.5380117318	-1.7192174821	 1.2856475829	 0.100214
H	 0.4115108866	-0.1991529605	 2.1780755736	 0.085319
H	-1.0938889779	-0.3855206701	 0.1082360601	 0.086953
H	 0.3668789351	-0.4968036408	-0.8684127648	 0.104237
128.1417	188.7564	270.9353	319.5575	351.701	410.5862	498.0179	566.4258	756.1	810.4341	829.9143	851.8437	899.331	904.6725	988.3199	1010.0178	1027.7259	1043.874	1109.8643	1133.3299	1169.1408	1201.9225	1239.3767	1267.7537	1285.1426	1311.7652	1328.137	1364.8545	1381.8636	1387.5745	1392.3109	1403.9533	1422.2085	1471.7332	1482.5286	1487.3352	1491.6791	1499.7797	1511.1962	2961.8851	2986.8261	3004.7273	3017.858	3023.0086	3025.1725	3047.6264	3051.7371	3052.7359	3063.5335	3068.1239	3073.0855
C1CCCOCC1	C1CCCOCC1	
InChI=1S/C6H12O/c1-2-4-6-7-5-3-1/h1-6H2	InChI=1S/C6H12O/c1-2-4-6-7-5-3-1/h1-6H2
