14
gdb 616	7.62733	2.2553	2.01567	2.0793	49.75	-0.2622	0.0801	0.3423	644.5398	0.118625	-307.54321	-307.53641	-307.535466	-307.573837	23.742	
C	 0.0848390393	 1.4843852415	-0.207188287	-0.42128
C	 0.0012294885	 0.023017271	 0.1548043071	 0.083025
O	 1.2200112097	-0.7292293965	 0.1805047965	-0.270126
C	 0.4838484322	-0.581147058	 1.4084557929	 0.037118
C	 1.211779664	 0.1496848574	 2.5088422555	-0.081969
O	 2.267948596	-0.6445369687	 3.0241899075	-0.418898
H	 0.9208316501	 1.9832488535	 0.2857190382	 0.130707
H	 0.2171213486	 1.5926918239	-1.2887452942	 0.132506
H	-0.8427037044	 1.9976570962	 0.0685041431	 0.125354
H	-0.8161375435	-0.507575275	-0.339123226	 0.090532
H	 0.0054885068	-1.5052811693	 1.7391560797	 0.096484
H	 1.5808145753	 1.1206289624	 2.1521063835	 0.091612
H	 0.5304967244	 0.3363732451	 3.3464386271	 0.111758
H	 2.8282587031	-0.8753285435	 2.2742914762	 0.293177
72.9169	153.6422	207.516	266.6993	400.0353	409.158	472.7567	545.4435	760.8497	825.659	905.9361	981.7638	995.3982	1068.557	1090.4813	1114.6811	1172.552	1179.3656	1232.3435	1303.7615	1354.7895	1395.7675	1413.8511	1434.0515	1468.4785	1491.259	1495.4736	1512.5931	3014.0594	3041.8578	3070.2804	3078.7758	3098.52	3101.4198	3140.6159	3798.8934
CC1OC1CO	C[C@H]1O[C@H]1CO	
InChI=1S/C4H8O2/c1-3-4(2-5)6-3/h3-5H,2H2,1H3	InChI=1S/C4H8O2/c1-3-4(2-5)6-3/h3-5H,2H2,1H3/t3-,4+/m1/s1
