16
gdb 4835	4.98077	1.32035	1.11273	2.2955	67.33	-0.1962	0.0498	0.2461	1065.7271	0.131959	-379.973239	-379.965472	-379.964527	-380.005546	28.727	
C	 0.0427690278	 1.5130849838	-0.2576272459	-0.367737
C	-0.0316959948	 0.0301592421	 0.149539955	-0.305593
C	-1.4139215519	-0.5322153817	 0.1561377053	 0.30462
C	-2.2227280583	-0.9987884223	 1.152347937	-0.179386
N	-3.4529752952	-1.4160345028	 0.6598849795	-0.363457
C	-3.3740563874	-1.1975230837	-0.6223182965	 0.438518
O	-4.3209968818	-1.4405538896	-1.5465837649	-0.426932
N	-2.1839348184	-0.6679161374	-1.0035050136	-0.358398
H	 1.0762349216	 1.872427908	-0.2334223587	 0.115378
H	-0.3386991483	 1.6706593414	-1.2723235088	 0.107919
H	-0.5539909265	 2.1314804515	 0.4191096737	 0.127787
H	 0.6171443172	-0.5584754267	-0.5146359526	 0.104439
H	 0.3782579494	-0.0927421745	 1.1573298119	 0.11933
H	-1.9940296028	-1.0637106773	 2.2054074826	 0.103253
H	-5.0718196197	-1.8115085673	-1.0661496063	 0.313082
H	-1.9187849709	-0.4320580135	-1.9444108878	 0.267177
67.106	129.6441	198.3683	267.6809	313.9084	400.2131	421.3967	459.0615	463.0971	607.7538	673.2541	727.9213	741.9267	783.8817	828.6418	956.5168	1010.1006	1040.1591	1070.5116	1089.5496	1151.8205	1200.9466	1238.7878	1266.9912	1310.959	1359.7669	1391.0722	1409.439	1478.9919	1496.7914	1504.1381	1558.246	1603.8647	1643.6729	3004.6741	3034.6809	3072.5219	3102.7721	3115.8866	3248.2227	3673.5401	3804.6235
CCC1=CN=C(O)N1	CCc1cnc(O)[nH]1	
InChI=1S/C5H8N2O/c1-2-4-3-6-5(8)7-4/h3H,2H2,1H3,(H2,6,7,8)	InChI=1S/C5H8N2O/c1-2-4-3-6-5(8)7-4/h3H,2H2,1H3,(H2,6,7,8)
