10
gdb 1822	6.83336	2.35653	1.75225	1.4624	50.36	-0.2714	-0.0965	0.1749	633.9726	0.068352	-359.388326	-359.382918	-359.381974	-359.417566	19.81	
O	 0.0149639932	-0.0469974284	 0.002812716	-0.331744
C	 0.0092002966	 1.1577063895	 0.0093169457	 0.419309
N	-1.1164639574	 1.9814242936	 0.0288529048	-0.38733
C	-0.7730541591	 3.3334935044	 0.0315024887	 0.419308
O	-1.5356831855	 4.265989047	 0.0467414501	-0.331742
C	 0.7305285011	 3.3542770223	 0.0114971145	-0.180906
C	 1.1817047405	 2.0993654133	-0.0012781498	-0.180903
H	-2.064408994	 1.6405074289	 0.0397372157	 0.277845
H	 1.2825843236	 4.2833076967	 0.0091129838	 0.148081
H	 2.198878531	 1.7346944626	-0.0168349294	 0.148081
140.0512	299.3119	392.4388	525.0857	536.8545	640.0543	644.5114	669.8906	789.9386	859.1954	903.731	916.4623	981.7507	1079.9806	1129.9409	1310.0818	1342.0986	1344.5763	1645.1406	1829.1405	1866.1762	3237.1756	3259.3519	3660.1187
O=C1NC(=O)C=C1	O=C1NC(=O)C=C1	
InChI=1S/C4H3NO2/c6-3-1-2-4(7)5-3/h1-2H,(H,5,6,7)	InChI=1S/C4H3NO2/c6-3-1-2-4(7)5-3/h1-2H,(H,5,6,7)
