19
gdb 2921	5.53463	1.71623	1.46982	0.2141	73.74	-0.2239	0.0351	0.259	906.8307	0.172856	-273.809498	-273.80199	-273.801046	-273.841287	27.74	
C	-0.0612390833	 1.5787844626	 0.2832994512	-0.371196
C	-0.051224048	 0.1069764125	-0.1673126394	-0.289341
C	-1.3983632768	-0.5516619623	-0.0996943141	 0.35644
C	-2.1180321149	-1.0113338652	-1.1261623787	-0.170998
C	-3.4083340329	-1.6651831247	-0.6963912154	-0.24234
C	-3.5304882185	-1.2429597026	 0.7909446503	-0.201666
C	-2.0997106367	-0.8331578765	 1.2180304437	-0.296013
H	 0.9407411381	 2.0136258207	 0.2140600193	 0.111189
H	-0.733804007	 2.1726127295	-0.3436342594	 0.118845
H	-0.3961006747	 1.6797115396	 1.3203935399	 0.118098
H	 0.3320143939	 0.0448417604	-1.1921899996	 0.099
H	 0.6574522582	-0.4485294554	 0.4637376362	 0.09878
H	-1.801923327	-0.9695123084	-2.1639935338	 0.077962
H	-4.2719238913	-1.3481407256	-1.2926669199	 0.097545
H	-3.3472395908	-2.7578443353	-0.8078300439	 0.100362
H	-4.193163864	-0.3749193758	 0.8668565986	 0.102397
H	-3.9548036949	-2.0272464132	 1.4231428275	 0.093248
H	-1.5814937904	-1.6445812876	 1.7509495333	 0.099206
H	-2.0986300289	 0.0242084174	 1.9006464441	 0.09848
71.1387	119.8002	176.1896	213.5802	304.472	356.8045	507.2022	571.6856	664.9471	783.7548	815.0835	841.7892	874.9189	904.7603	916.6163	952.94	966.2428	1037.1266	1054.6865	1070.0578	1101.6312	1152.2152	1173.6446	1230.6499	1244.6213	1264.9402	1304.562	1320.2631	1328.2533	1355.0155	1370.3215	1406.7578	1480.8759	1483.1549	1488.0616	1498.3791	1505.5689	1509.4626	1717.6657	2995.2544	2998.251	3004.9258	3036.6197	3040.6036	3048.9833	3057.2683	3060.6319	3098.4311	3106.6963	3110.0867	3177.4838
CCC1=CCCC1	CCC1=CCCC1	
InChI=1S/C7H12/c1-2-7-5-3-4-6-7/h5H,2-4,6H2,1H3	InChI=1S/C7H12/c1-2-7-5-3-4-6-7/h5H,2-4,6H2,1H3
