14
gdb 4864	6.80554	1.35335	1.14399	1.1264	60.62	-0.2144	0.0262	0.2405	1001.8234	0.107959	-415.880611	-415.873001	-415.872057	-415.912667	26.908	
C	-0.024121576	 1.3052485999	-0.0530402645	-0.235211
O	 0.1127990221	-0.118364533	 0.018437191	-0.250399
C	 0.6952478171	-0.5617618515	 1.1230156974	 0.500216
N	 1.1502429935	 0.1123615926	 2.1314369281	-0.3893
C	 1.6428850207	-0.8826739261	 2.9773265475	-0.122822
C	 1.4583911748	-2.103515367	 2.4331978701	 0.269068
N	 1.7561605652	-3.3930430805	 2.8462180563	-0.602318
O	 0.8238331987	-1.8935889985	 1.1908555268	-0.217893
H	 0.9564280236	 1.7875508555	-0.0146984861	 0.144684
H	-0.5135925442	 1.5051303605	-1.0060548953	 0.136943
H	-0.6320027891	 1.6745489856	 0.7774188668	 0.144681
H	 2.0994163822	-0.6497497678	 3.9259377424	 0.123643
H	 2.4010509019	-3.8694618636	 2.2238081099	 0.249354
H	 0.9312917494	-3.9741085461	 2.9566975897	 0.249353
97.5431	140.7768	167.6992	217.7713	235.0435	356.839	383.743	535.1353	620.4011	683.6553	747.9397	755.947	762.0246	869.4751	931.0534	1001.6188	1086.8464	1159.3809	1183.8965	1188.328	1215.3969	1231.3627	1285.6398	1410.2517	1472.8233	1478.0873	1501.4275	1640.5882	1656.2604	1713.4541	3047.2675	3120.9026	3160.0738	3270.2372	3496.7895	3562.6774
COC1=NC=C(N)O1	COc1ncc(N)o1	
InChI=1S/C4H6N2O2/c1-7-4-6-2-3(5)8-4/h2H,5H2,1H3	InChI=1S/C4H6N2O2/c1-7-4-6-2-3(5)8-4/h2H,5H2,1H3
