14
gdb 2228	4.96069	2.98196	2.33134	1.8088	56.61	-0.2423	0.018	0.2603	604.8805	0.114432	-324.57756	-324.571657	-324.570713	-324.606914	22.673	
C	-0.0176106251	 1.5198990946	-0.0434571293	-0.473929
C	 0.0510733292	 0.0257622538	 0.0483618176	 0.404591
C	-0.8258211675	-0.8243775237	 0.9232868986	-0.345659
C	 0.6796581662	-0.8513870435	 1.1229139221	-0.059339
N	 1.3909528121	-1.8989100313	 0.4241075391	-0.257017
C	 1.1788733484	-1.6841147476	-0.8115535387	 0.093027
O	 0.4455147707	-0.6015253818	-1.1775098659	-0.243322
H	 0.9367893299	 1.9353880053	-0.3809801219	 0.132019
H	-0.7978466383	 1.8362610435	-0.7437237307	 0.133921
H	-0.252250016	 1.9441707585	 0.9365412171	 0.126717
H	-1.4047303279	-0.2958195217	 1.6729576909	 0.119884
H	-1.3017204149	-1.7047383287	 0.5040934674	 0.124509
H	 1.118019824	-0.4915161285	 2.0462028302	 0.102619
H	 1.5391707793	-2.288394759	-1.6351399265	 0.141977
185.8017	225.7819	308.609	400.894	424.452	600.091	635.6291	742.3166	785.4807	859.4389	910.3737	929.7339	940.6387	963.7673	1029.0543	1042.0307	1077.8088	1104.8481	1132.6098	1140.8227	1233.5387	1270.8246	1336.7582	1383.2676	1424.622	1470.571	1477.9539	1499.9943	1667.9417	3038.2848	3104.0445	3120.6831	3129.1655	3179.8847	3222.7945	3229.1795
CC12CC1N=CO2	C[C@]12C[C@H]1N=CO2	
InChI=1S/C5H7NO/c1-5-2-4(5)6-3-7-5/h3-4H,2H2,1H3	InChI=1S/C5H7NO/c1-5-2-4(5)6-3-7-5/h3-4H,2H2,1H3/t4-,5+/m1/s1
