8
gdb 3825	10.09678	2.0721	1.71926	4.1925	46.41	-0.3241	-0.0819	0.2422	627.7821	0.045022	-354.29246	-354.287433	-354.286489	-354.321434	17.121	
N	 0.0349066476	-1.1282263216	-0.0038504529	-0.303666
C	 0.0025167298	 0.0263510207	 0.0028249505	 0.285328
C	-0.0238974585	 1.4525546658	 0.0108874201	 0.280725
N	-1.1556982919	 2.1190611872	 0.0295176996	-0.142246
O	-0.7364844205	 3.4390738653	 0.0311122736	-0.131364
C	 0.6007213698	 3.4191182292	 0.0132301353	 0.108512
N	 1.1130275613	 2.231269445	-1.1025*^-6	-0.286674
H	 1.1098552624	 4.3713536684	 0.0116226664	 0.189385
185.4088	185.58	497.1404	560.6245	591.8809	635.526	768.2547	906.8299	948.533	988.2272	1009.8822	1129.2184	1295.2452	1348.5415	1490.5869	1566.1854	2377.9957	3276.7842
N#CC1=NOC=N1	N#Cc1nocn1	
InChI=1S/C3HN3O/c4-1-3-5-2-7-6-3/h2H	InChI=1S/C3HN3O/c4-1-3-5-2-7-6-3/h2H
