11
gdb 2572	4.04354	2.49615	1.72216	2.4006	48.5	-0.2613	-0.0659	0.1954	682.2051	0.075381	-380.373644	-380.366854	-380.36591	-380.404757	22.782	
O	-0.1488235574	 0.2443033947	 0.7457242145	-0.243752
C	 0.1729422342	 0.9372209541	-0.1832796925	 0.094176
C	 1.3122316978	 1.9257055278	-0.1036540115	 0.201933
C	 1.5506698924	 2.611558515	 1.1995260272	-0.191915
O	 2.3940337133	 1.5737743573	 0.7712372288	-0.236637
C	 1.7279223441	 2.6371775778	-1.3518282028	 0.103355
O	 1.0369782894	 2.7124521947	-2.3355256993	-0.246353
H	-0.341523464	 0.9097744129	-1.162113005	 0.122444
H	 1.9805956825	 3.6127500024	 1.2020440824	 0.136214
H	 0.867230605	 2.3628491569	 2.009307851	 0.156766
H	 2.7415167327	 3.0893480564	-1.2886599829	 0.103769
101.1818	126.2817	193.8865	270.6633	325.7768	354.2261	484.5563	666.5687	762.9434	832.7719	907.3403	960.7494	1009.7379	1067.17	1140.8185	1169.7088	1257.1687	1330.8317	1410.2511	1416.5925	1501.4776	1819.6822	1830.4524	2905.8307	2967.695	3085.0613	3188.9863
O=CC1(CO1)C=O	O=CC1(CO1)C=O	
InChI=1S/C4H4O3/c5-1-4(2-6)3-7-4/h1-2H,3H2	InChI=1S/C4H4O3/c5-1-4(2-6)3-7-4/h1-2H,3H2
