16
gdb 1531	8.2261	1.19166	1.06148	1.3017	58.42	-0.2603	0.034	0.2942	1074.6688	0.135571	-362.911941	-362.903488	-362.902544	-362.945269	28.714	
C	 0.1028070694	 1.3187562044	 0.0070462157	-0.224589
O	-0.0790779665	-0.0972788161	 0.0013062785	-0.235159
C	-1.3537828901	-0.5377010194	 0.0124804516	 0.396796
N	-2.3263060532	 0.2797191764	 0.0269154473	-0.536532
C	-1.3609895228	-2.049282102	 0.0048328162	-0.259514
C	-2.7455000031	-2.680566393	 0.0133754578	-0.093108
O	-2.5607346356	-4.0862636668	 0.0046152748	-0.419586
H	 1.1820604701	 1.477796747	-0.0033048057	 0.124338
H	-0.3613332553	 1.7745684208	-0.8719859611	 0.135352
H	-0.3429483176	 1.7650198843	 0.9003752121	 0.135355
H	-3.2196806776	-0.2057448354	 0.0338157909	 0.222349
H	-0.8085359726	-2.3967046487	-0.875362343	 0.13748
H	-0.7937605961	-2.4055871179	 0.8720152419	 0.137506
H	-3.2997619011	-2.3549754181	 0.9082253326	 0.095202
H	-3.3148850541	-2.3457554979	-0.8684609222	 0.095279
H	-3.4268837339	-4.5038380276	 0.0082612327	 0.288832
52.5904	101.1596	162.2823	164.5759	184.8201	267.0932	328.736	361.4938	440.0266	565.5681	682.4982	807.3051	843.5061	908.7508	986.3593	1053.6704	1083.4401	1101.3096	1119.2654	1180.7504	1218.3473	1227.5813	1243.1072	1305.5476	1306.0706	1397.5728	1465.2093	1474.3332	1477.259	1482.0614	1500.1002	1535.9631	1719.7982	2965.9507	2994.2245	3044.5818	3050.3375	3087.011	3116.0977	3147.082	3523.2824	3831.8864
COC(=N)CCO	CO[C]([NH])CCO	
InChI=1S/C4H9NO2/c1-7-4(5)2-3-6/h5-6H,2-3H2,1H3	InChI=1S/C4H9NO2/c1-7-4(5)2-3-6/h5-6H,2-3H2,1H3
