17
gdb 2533	3.25634	2.09504	1.3522	0.8236	66.75	-0.2624	0.039	0.3014	916.5282	0.145426	-309.676929	-309.668207	-309.667263	-309.709861	30.661	
C	-0.8123609477	 0.9913328767	-0.5215764917	-0.390182
C	-0.2253851984	-0.3701666335	-0.1451145604	-0.180889
C	 0.722783366	-0.2925326894	 1.0608014063	-0.054653
O	-0.0351116549	 0.1715904975	 2.1671211587	-0.23001
C	 0.7402731558	 0.5068613777	 3.2985091595	-0.23707
C	 1.3557221715	-1.5913111161	 1.3333748423	 0.338354
C	 1.864326467	-2.6581636781	 1.5539233206	-0.464573
H	-0.0246465493	 1.6964883292	-0.8104494218	 0.110492
H	-1.5000519195	 0.8962598475	-1.3669989106	 0.111816
H	-1.3582228028	 1.4221867046	 0.3206788668	 0.136547
H	-1.0235900144	-1.0779132765	 0.1029669352	 0.117027
H	 0.3314882426	-0.7981175761	-0.9852631342	 0.10779
H	 1.5212458052	 0.4381532431	 0.8372841994	 0.087378
H	 1.2831283201	-0.3623420917	 3.6937653194	 0.120099
H	 1.4698061996	 1.298908361	 3.0674707155	 0.102842
H	 0.048604804	 0.8738483376	 4.0602341102	 0.127494
H	 2.3166280952	-3.5994191034	 1.7478239251	 0.197541
101.3057	106.3141	146.884	178.0759	208.251	247.7685	286.4948	339.1436	459.5252	532.6361	579.8496	625.7256	672.2238	761.4582	870.0988	942.7808	981.1695	1052.0294	1109.226	1133.3336	1151.5623	1184.882	1225.7894	1290.9936	1315.9737	1364.1661	1382.1879	1407.3428	1475.6455	1479.4955	1484.4434	1495.8675	1509.6729	1511.1215	2229.0198	2937.2973	2981.1408	3037.4165	3042.6264	3048.5175	3086.2827	3104.6203	3119.6272	3131.9325	3502.6293
CCC(OC)C#C	CC[C@@H](OC)C#C	
InChI=1S/C6H10O/c1-4-6(5-2)7-3/h1,6H,5H2,2-3H3	InChI=1S/C6H10O/c1-4-6(5-2)7-3/h1,6H,5H2,2-3H3/t6-/m0/s1
