17
gdb 2939	6.05407	1.77374	1.46234	1.3524	65.68	-0.2333	0.0308	0.2641	844.7789	0.149484	-309.725786	-309.718666	-309.717722	-309.757038	26.255	
O	-0.0261204821	 1.4518212651	 0.0264431587	-0.424205
C	 0.0298579302	 0.0325369725	-0.0041229983	-0.085019
C	-1.4006272706	-0.4973833333	 0.0429641963	-0.000125
C	-1.4805466196	-2.0453309145	-0.0397472635	-0.235187
C	-2.6231464782	-2.4624975162	 0.9227526537	-0.251059
C	-2.7805808008	-1.2492400266	 1.8094248245	-0.071952
C	-2.1283616502	-0.1907312668	 1.3334517172	-0.055315
H	 0.8737673375	 1.7894735442	 0.0484253649	 0.286187
H	 0.5272604042	-0.3264691733	-0.920241004	 0.082146
H	 0.5930222002	-0.3643033335	 0.8563650061	 0.082985
H	-1.9342235671	-0.0306011916	-0.798357503	 0.083951
H	-1.6317138394	-2.4052684568	-1.0605200099	 0.096974
H	-0.534716412	-2.4727431099	 0.3143938036	 0.098066
H	-3.5567363178	-2.6706869143	 0.3809216915	 0.10435
H	-2.3873175977	-3.3752097451	 1.4820588715	 0.099944
H	-3.3925540956	-1.2573472569	 2.7052039997	 0.087502
H	-2.1157283911	 0.8004775069	 1.7707536111	 0.100756
87.4385	127.8583	214.7904	262.0498	299.3072	411.1483	502.7969	623.405	753.7613	765.4845	848.9485	855.5411	925.0013	949.0663	971.3027	985.2342	1054.8361	1074.1891	1084.7724	1109.4902	1134.874	1165.6601	1231.1797	1242.1819	1249.8861	1298.9549	1317.0157	1330.3715	1344.8632	1389.8762	1453.4937	1483.6141	1500.7134	1520.2483	1686.3108	2957.1597	2982.002	3001.5799	3006.4732	3033.4682	3053.8841	3096.1513	3182.6111	3214.7481	3832.3003
OCC1CCC=C1	OC[C@H]1CCC=C1	
InChI=1S/C6H10O/c7-5-6-3-1-2-4-6/h1,3,6-7H,2,4-5H2	InChI=1S/C6H10O/c7-5-6-3-1-2-4-6/h1,3,6-7H,2,4-5H2/t6-/m1/s1
