13
gdb 1075	7.30669	1.89202	1.53715	1.4662	54.83	-0.2247	0.0168	0.2415	750.9907	0.102952	-344.47097	-344.464719	-344.463775	-344.50138	22.715	
O	 0.3086242848	 1.0515381867	 0.7392729482	-0.409526
C	 0.0201850527	 0.0713076047	-0.2449908803	-0.169739
C	-1.3822867877	-0.4551765306	-0.1503875103	 0.197646
C	-2.2088286489	-0.3674145815	 0.9273896248	-0.089797
O	-3.4103074879	-0.9505457714	 0.6642032843	-0.142096
C	-3.3465417399	-1.4238774033	-0.606588962	 0.008697
C	-2.1369190177	-1.1501132232	-1.1583283207	-0.292516
H	-0.3235523957	 1.7685427892	 0.6200355308	 0.282355
H	 0.2069345361	 0.4507655377	-1.262613632	 0.096968
H	 0.7473110699	-0.7319702318	-0.0755124553	 0.127924
H	-2.091737248	 0.0552498849	 1.9105286395	 0.143209
H	-4.2333688628	-1.9181921201	-0.9676853874	 0.136808
H	-1.8128843849	-1.4044241812	-2.1559635497	 0.110068
78.3543	188.0117	255.8021	357.293	445.1538	623.4641	624.455	703.7169	740.5104	789.7904	828.8308	893.4843	977.8494	1003.289	1050.6774	1077.9417	1098.7385	1196.6861	1215.4098	1248.4866	1267.588	1362.6228	1406.5435	1435.4903	1503.7549	1533.6441	1633.1664	2973.7706	3048.7854	3249.1184	3281.9994	3289.5966	3806.4806
OCC1=COC=C1	OCc1cocc1	
InChI=1S/C5H6O2/c6-3-5-1-2-7-4-5/h1-2,4,6H,3H2	InChI=1S/C5H6O2/c6-3-5-1-2-7-4-5/h1-2,4,6H,3H2
