13
gdb 3627	5.558	3.72372	3.55655	1.7358	54.71	-0.2443	0.0837	0.328	474.7499	0.103786	-307.226474	-307.22218	-307.221236	-307.25417	18.311	
O	-0.0552789031	 1.4933465167	 0.1291462551	-0.291216
C	 1.3787983512	 1.4839583506	-0.0432174756	 0.077341
C	 1.9909787221	 0.6109445917	 1.0892220257	-0.088506
C	 0.9391186949	-0.4983490486	 1.094473508	-0.088506
C	 2.153637067	-0.6008605019	 0.2001061929	-0.111703
C	 1.3383536749	 0.1670751425	-0.8855064684	-0.095778
C	 0.0294736547	 0.0609504783	-0.036484395	 0.077342
H	 1.8084730323	 2.4448602631	-0.3207150764	 0.08096
H	 2.5439093612	 0.904679974	 1.9703740169	 0.093
H	 0.6793411472	-1.0616966933	 1.9796834567	 0.093
H	 2.9359462189	-1.3429189096	 0.1464484332	 0.092928
H	 1.3980891273	 0.1053076809	-1.9687684234	 0.080177
H	-0.9085429786	-0.4205254344	-0.3071565798	 0.08096
543.3824	554.7826	742.7886	743.2416	798.9562	802.1217	832.1967	840.4178	844.3891	861.2014	865.0529	917.8174	943.0967	991.3552	996.1517	1035.3462	1037.5911	1084.5778	1106.9615	1165.1086	1168.9061	1195.3312	1209.464	1260.4712	1270.6161	1309.8233	1347.1889	3136.3707	3136.7562	3157.3539	3210.4002	3214.8092	3232.9772
O1C2C3C4C3C2C14	O1[C@H]2[C@H]3[C@@H]4[C@H]3[C@H]2[C@H]14	
InChI=1S/C6H6O/c7-5-2-1-3(2)6(7)4(1)5/h1-6H	InChI=1S/C6H6O/c7-5-2-1-3(2)6(7)4(1)5/h1-6H/t1-,2+,3-,4+,5-,6+
