18
gdb 2859	6.1689	1.32221	1.25246	2.2365	64.41	-0.2465	0.0719	0.3185	1010.3691	0.160187	-326.949224	-326.941088	-326.940144	-326.982033	29.153	
C	-0.1386459365	 1.4639116646	-0.4743092231	-0.377333
C	 0.01553726	 0.122768677	 0.2524546212	-0.184347
C	-1.304378167	-0.6080211536	 0.3665880514	 0.005016
N	-1.7567536418	-1.3776641704	-0.8080605193	-0.351103
C	-1.4772542489	-2.0832652872	 0.4619810457	-0.046857
C	-0.3625482078	-3.1013073832	 0.377922747	-0.063301
O	-0.7383243341	-4.1875732358	-0.452706021	-0.422982
H	 0.8202416374	 1.9846989031	-0.5533015366	 0.113105
H	-0.5259896362	 1.3094770984	-1.4862350738	 0.128682
H	-0.8344170761	 2.1253226203	 0.0543955993	 0.110533
H	 0.7360740462	-0.5003650405	-0.284637049	 0.107746
H	 0.4209774791	 0.2861457634	 1.2593953302	 0.097316
H	-2.0722921153	-0.0287486479	 0.881782679	 0.080247
H	-2.7577831922	-1.272388046	-0.94467932	 0.232522
H	-2.3429493992	-2.4304063977	 1.0245093783	 0.087322
H	 0.5626299124	-2.6305029782	 0.0185106407	 0.089319
H	-0.1579073403	-3.5230803266	 1.3678067838	 0.106121
H	-1.0053248297	-3.7896979598	-1.2903096537	 0.287991
61.7207	86.4677	154.4869	208.6075	250.9949	304.478	412.9259	447.3977	483.5578	581.2494	754.4217	815.1494	821.0417	905.7887	948.9835	974.0246	990.8885	1040.0506	1063.2921	1073.7025	1110.0473	1158.9895	1186.1582	1242.2075	1272.2368	1277.4573	1302.488	1340.3552	1367.8833	1405.2844	1409.749	1444.5429	1475.7456	1482.2596	1499.0388	1501.1256	1508.9686	3010.1141	3029.3664	3032.7876	3072.1405	3080.5264	3091.447	3106.3818	3112.4684	3119.3437	3510.1305	3785.706
CCC1NC1CO	CC[C@H]1N[C@H]1CO	
InChI=1S/C5H11NO/c1-2-4-5(3-7)6-4/h4-7H,2-3H2,1H3	InChI=1S/C5H11NO/c1-2-4-5(3-7)6-4/h4-7H,2-3H2,1H3/t4-,5+/m1/s1
