19
gdb 3972	3.51536	0.80412	0.74369	0.227	79.11	-0.2435	-0.0062	0.2373	1551.2606	0.155061	-456.274359	-456.263447	-456.262503	-456.31175	38.018	
C	-0.1251260429	 1.5126228022	 0.0040601143	-0.473893
C	-0.0046741303	 0.0137158461	-0.0182139318	 0.358511
C	 0.0552402388	-0.7438909023	 1.2896304937	-0.350059
C	 1.3438426416	-0.4847757888	 2.0382130197	 0.35851
C	 2.6374353364	-1.0129186635	 1.4819653639	-0.473889
N	 1.2382745332	 0.1858267531	 3.1220021625	-0.170952
O	 2.4845844899	 0.3668794332	 3.7439319914	-0.397258
N	 0.0544536428	-0.6953434714	-1.0808459085	-0.170953
O	-0.0151300751	 0.09726121	-2.2383413008	-0.397257
H	 0.5720629689	 1.9654626941	-0.7058066848	 0.148166
H	-1.1315996543	 1.8154388651	-0.3071982205	 0.144178
H	 0.0646060915	 1.9028474349	 1.0055168531	 0.136711
H	-0.7797327757	-0.4414148209	 1.9297151016	 0.123695
H	-0.0358711145	-1.8126798247	 1.0710680716	 0.123697
H	 3.4148835016	-0.2453549613	 1.5203425407	 0.148164
H	 2.9947470476	-1.8528442655	 2.0889401644	 0.144181
H	 2.5077060443	-1.3536900593	 0.4532612498	 0.136708
H	 2.2481403515	 0.8819380091	 4.5223881277	 0.305871
H	 0.0474146546	-0.5617537601	-2.937606758	 0.30587
40.0178	59.7626	72.1085	82.1619	118.7899	273.9101	285.878	303.0363	310.2369	359.4599	398.7204	404.1353	414.8513	532.7106	534.4361	639.424	680.5566	811.5426	827.5482	919.2641	975.0081	993.5432	1016.781	1036.511	1062.2289	1071.6625	1188.1106	1253.6389	1283.7451	1315.8991	1393.384	1395.6638	1399.7724	1401.3007	1463.6183	1478.0296	1478.529	1483.8899	1485.0107	1719.4615	1733.8152	3041.3846	3041.6713	3046.3536	3100.888	3103.6041	3103.8372	3142.2132	3142.2843	3821.4505	3821.9847
CC(CC(C)=NO)=NO	CC(=NO)CC(=NO)C	
InChI=1S/C5H10N2O2/c1-4(6-8)3-5(2)7-9/h8-9H,3H2,1-2H3	InChI=1S/C5H10N2O2/c1-4(6-8)3-5(2)7-9/h8-9H,3H2,1-2H3
