14
gdb 2883	6.56552	1.91412	1.60177	4.302	62.75	-0.2647	0.0006	0.2654	755.4208	0.11541	-287.469473	-287.463234	-287.46229	-287.499782	22.858	
N	-0.1447902335	-1.1587400128	-0.18377101	-0.32656
C	-0.089275842	-0.0060717234	-0.1163796234	 0.261842
C	-0.0173548549	 1.4529868468	-0.0290896916	-0.16879
C	-0.6427464566	 2.0243044697	 1.2823289874	-0.22199
C	 0.2453374665	 3.2367868648	 1.6548247696	-0.259245
C	 1.5301008599	 2.9659212749	 0.9107635407	-0.062604
C	 1.4030093693	 1.9998669518	 0.0060785262	-0.060329
H	-0.5419322859	 1.848502803	-0.9110888537	 0.130145
H	-1.6966630913	 2.2780943528	 1.15503911	 0.116901
H	-0.5772742871	 1.2633850784	 2.0638479906	 0.133044
H	-0.1982426706	 4.1859414635	 1.3237482453	 0.116125
H	 0.3891697228	 3.3257711891	 2.736772732	 0.116963
H	 2.4362739073	 3.5360303064	 1.0819007937	 0.107191
H	 2.168347276	 1.6442830951	-0.6722631865	 0.117309
90.4353	168.9009	234.0904	394.9385	515.0225	552.7159	588.9942	750.2383	770.6441	849.7516	860.6426	925.8429	971.4773	978.2292	1028.3372	1044.9784	1070.3225	1134.9491	1167.8237	1223.6741	1274.493	1299.6883	1318.1462	1336.1535	1377.687	1483.5125	1499.486	1688.2772	2356.2369	3001.0651	3016.3413	3064.0896	3077.8562	3125.1869	3194.909	3224.1749
N#CC1CCC=C1	N#C[C@H]1CCC=C1	
InChI=1S/C6H7N/c7-5-6-3-1-2-4-6/h1,3,6H,2,4H2	InChI=1S/C6H7N/c7-5-6-3-1-2-4-6/h1,3,6H,2,4H2/t6-/m1/s1
