14
gdb 570	8.4595	2.35385	2.05709	2.2789	49.3	-0.2432	0.0686	0.3118	614.496	0.119781	-307.534482	-307.528025	-307.527081	-307.565064	21.983	
O	-0.0101646048	 1.3678462715	-0.2608482491	-0.422401
C	 0.0184171383	-0.0190204472	 0.0387636612	-0.089155
C	-1.4163825334	-0.5050268787	 0.0915730475	-0.011327
C	-2.12987289	-0.6075401352	-1.2730151323	-0.070162
O	-2.1413772302	-2.0512334795	-1.2071685225	-0.272991
C	-1.5964284755	-2.037632146	 0.1268377764	-0.091117
H	 0.8954492629	 1.6784784581	-0.3501548846	 0.289317
H	 0.5672884989	-0.5854405983	-0.731715719	 0.092095
H	 0.5131024763	-0.2133398441	 1.0048558476	 0.087074
H	-1.9638837121	 0.0499740448	 0.8562473559	 0.0867
H	-3.1448844004	-0.1923409291	-1.3048479033	 0.099319
H	-1.5647586368	-0.2340930355	-2.1351047239	 0.106839
H	-0.6752332245	-2.6309379153	 0.2032960728	 0.09694
H	-2.3152294488	-2.4073175855	 0.8694988031	 0.09887
65.9052	118.9887	227.0779	264.4661	375.0454	462.4475	787.1568	861.5685	887.2785	922.1907	975.7648	1032.3902	1047.4085	1091.1617	1101.3374	1149.5724	1159.6167	1174.3222	1229.6342	1279.3894	1281.3931	1309.0602	1353.8448	1391.9637	1463.1191	1512.34	1521.444	1540.4318	2957.8683	2987.0476	3001.3075	3018.9098	3041.285	3061.1742	3092.7731	3831.1564
OCC1COC1	OCC1COC1	
InChI=1S/C4H8O2/c5-1-4-2-6-3-4/h4-5H,1-3H2	InChI=1S/C4H8O2/c5-1-4-2-6-3-4/h4-5H,1-3H2
