19
gdb 1722	4.07415	1.99197	1.77462	1.9318	66.66	-0.242	0.0714	0.3135	822.1934	0.170864	-310.904927	-310.896872	-310.895928	-310.937529	29.208	
C	 0.0915802504	 1.5104462682	-0.1649531541	-0.392826
C	-0.0586719665	 0.0030531578	 0.0670170779	-0.232942
C	-1.5061211278	-0.507325168	 0.098008814	 0.313233
C	-2.3381013856	 0.1176627171	 1.2143669329	-0.465537
C	-2.1851039822	-0.5518079116	-1.2984562036	-0.107407
O	-2.1192122266	-1.9901248637	-1.3429576178	-0.2738
C	-1.5968174994	-2.053687777	-0.0018812424	-0.11538
H	 1.1470164092	 1.7842811295	-0.2559866207	 0.116713
H	-0.4098917972	 1.825167109	-1.0870932892	 0.117836
H	-0.3290381134	 2.0953677033	 0.6584340838	 0.119732
H	 0.4781442852	-0.5368611674	-0.7232644247	 0.102897
H	 0.4307811088	-0.2728013874	 1.0110495893	 0.094057
H	-2.446654659	 1.1988178628	 1.0813952587	 0.119937
H	-3.3438082177	-0.3138302871	 1.2424478768	 0.117756
H	-1.8735674046	-0.0519647159	 2.1928790788	 0.114685
H	-3.2213374113	-0.1876679848	-1.3235476219	 0.091454
H	-1.6285967149	-0.0903252111	-2.1242693042	 0.095236
H	-0.6435225927	-2.5960715139	 0.0439985041	 0.094221
H	-2.3067292948	-2.5231074798	 0.6930375824	 0.090135
40.0311	113.4262	203.2326	228.8329	263.2717	330.9312	355.2058	394.2504	457.0428	645.0016	789.2834	840.0998	888.9817	897.6476	970.5332	972.0326	997.1374	1020.553	1041.6658	1057.3	1083.4368	1159.0378	1163.8568	1191.8682	1235.0618	1284.3495	1311.2152	1328.6138	1370.4425	1387.0769	1411.2533	1417.6716	1481.8608	1494.6968	1496.6564	1503.6913	1510.7159	1516.3982	1537.9156	2992.2513	3003.0913	3012.6425	3027.8535	3035.647	3040.8326	3041.5785	3049.4153	3093.1052	3099.6198	3101.2249	3111.1841
CCC1(C)COC1	CCC1(C)COC1	
InChI=1S/C6H12O/c1-3-6(2)4-7-5-6/h3-5H2,1-2H3	InChI=1S/C6H12O/c1-3-6(2)4-7-5-6/h3-5H2,1-2H3
