20
gdb 2366	4.04273	1.92715	1.51012	1.2522	71.47	-0.2198	0.0839	0.3037	900.0564	0.182019	-291.015785	-291.007291	-291.006347	-291.048101	31.368	
C	 0.074415767	 1.6902079786	 0.2206343765	-0.38601
C	-0.4206928311	 1.1571056615	-1.1326205878	 0.014514
C	-0.516868926	 2.2873007043	-2.1689005764	-0.389872
C	 0.5060230884	 0.0536957049	-1.6190051804	 0.04305
C	 0.3630089783	-1.3556489068	-1.1524975123	-0.264495
N	 0.1220882864	-1.0112727197	-2.5493652224	-0.090155
C	-1.2438568041	-1.1122397253	-3.0390291112	-0.313919
H	 0.0989359616	 0.898629392	 0.9757882357	 0.114862
H	 1.0881244692	 2.0986939331	 0.13245122	 0.11397
H	-0.5742871143	 2.492227656	 0.5878966799	 0.109821
H	-1.4229751516	 0.7394121901	-0.9806296816	 0.071678
H	 0.4693623117	 2.7298786583	-2.3520867591	 0.114592
H	-0.899853365	 1.9239297737	-3.1270445456	 0.118165
H	-1.179893656	 3.0859194175	-1.8201859887	 0.109633
H	 1.5193013094	 0.4138701993	-1.8083911613	 0.081768
H	 1.2316492025	-1.9778128061	-0.9505764567	 0.109933
H	-0.5048337476	-1.5787075302	-0.5300761808	 0.099278
H	-1.4139239587	-2.1389633905	-3.3796213356	 0.121841
H	-2.0224796964	-0.8747958019	-2.2970760102	 0.099471
H	-1.3755449038	-0.4480115787	-3.899479352	 0.121876
76.9089	164.1852	216.3922	222.2818	232.467	252.5953	332.7212	349.3114	383.992	476.7652	535.6614	739.378	797.5352	883.7476	926.3411	931.0938	963.8868	984.077	1035.9317	1088.2143	1116.0214	1132.9922	1149.4342	1163.9044	1189.7227	1203.8152	1217.513	1308.0011	1339.6913	1341.3239	1397.5828	1414.7995	1432.6682	1450.0917	1486.1084	1488.7133	1492.3474	1500.9046	1503.7915	1509.9551	1515.437	2975.2356	3025.8579	3029.8253	3034.522	3063.1979	3076.4269	3080.1427	3090.3314	3096.5505	3098.5188	3105.138	3109.3418	3163.4974
CC(C)C1CN1C	CC(C)[C@H]1CN1C	
InChI=1S/C6H13N/c1-5(2)6-4-7(6)3/h5-6H,4H2,1-3H3	InChI=1S/C6H13N/c1-5(2)6-4-7(6)3/h5-6H,4H2,1-3H3/t6-,7?/m1/s1
