13
gdb 2843	5.30694	1.71949	1.45225	1.6405	56.25	-0.2646	0.013	0.2776	814.9734	0.099704	-344.385273	-344.377979	-344.377035	-344.416924	25.887	
O	 0.0317535173	 1.3759143017	-0.3683990122	-0.415819
C	 0.0295035065	 0.1393680473	 0.3240564566	-0.097653
C	-1.3337114972	-0.5032911388	 0.2695609133	 0.049183
O	-1.6991817425	-1.0515856856	-1.0015798898	-0.250181
C	-1.5347811875	-1.9595874671	 0.1013665974	-0.147363
C	-0.4469328962	-2.8997278656	 0.0412546854	 0.335113
C	 0.4315495412	-3.7195866774	 0.0092000632	-0.427801
H	-0.2017593161	 1.1836419536	-1.2836261895	 0.294313
H	 0.7791160547	-0.5575597019	-0.0735179427	 0.108965
H	 0.2923195724	 0.3660640797	 1.3628898235	 0.116219
H	-2.1344615266	 0.0579686046	 0.7535043652	 0.106391
H	-2.4730926433	-2.3758361252	 0.4674592453	 0.121324
H	 1.2141694173	-4.4371466652	-0.0239219557	 0.207309
69.8046	121.9266	189.9746	257.1069	347.2785	405.9828	476.5087	555.0595	604.1633	632.6011	674.8522	806.9701	812.5685	925.0858	1002.9478	1046.9912	1073.5682	1132.8144	1142.3483	1228.7022	1280.8814	1352.3981	1382.3966	1421.1434	1461.004	1493.2665	2240.1262	3021.5067	3079.6299	3105.1554	3116.7441	3501.0421	3802.372
OCC1OC1C#C	OC[C@H]1O[C@H]1C#C	
InChI=1S/C5H6O2/c1-2-4-5(3-6)7-4/h1,4-6H,3H2	InChI=1S/C5H6O2/c1-2-4-5(3-6)7-4/h1,4-6H,3H2/t4-,5+/m0/s1
