14
gdb 2595	3.0054	2.78965	1.7256	3.2324	58.1	-0.2839	0.0232	0.3071	738.4787	0.113308	-324.57348	-324.566253	-324.565309	-324.604808	25.873	
O	 0.1507760337	 1.3106090169	-0.4183716501	-0.410101
C	-0.000143931	 0.0230449682	 0.1381962383	-0.134278
C	-1.4273520788	-0.5075875103	 0.0379396869	 0.165025
C	-1.8907082853	-1.1270609036	-1.2699030584	-0.279536
C	-1.6527896776	-2.007355717	-0.0799748401	-0.296128
C	-2.3833749275	 0.2664617628	 0.7875961419	 0.222339
N	-3.1108218397	 0.9274352196	 1.3990925398	-0.345628
H	-0.3476187119	 1.9326392553	 0.1235789728	 0.298855
H	 0.6569436368	-0.638589007	-0.4355181863	 0.114524
H	 0.3277197981	-0.0083104285	 1.1878017009	 0.109263
H	-2.9132443757	-0.9465066513	-1.5781023089	 0.142882
H	-1.1655691839	-1.1284064117	-2.0758417564	 0.13841
H	-0.7649147627	-2.6300491626	-0.0603579079	 0.13181
H	-2.5104830943	-2.4268304708	 0.4316656975	 0.142564
82.544	154.816	213.9016	247.5477	304.9959	362.5528	444.4816	570.245	588.0951	700.6048	786.7375	877.8927	930.676	944.5771	966.8462	1030.8746	1065.3277	1086.9989	1094.0541	1192.239	1196.8842	1284.9509	1343.2337	1387.9382	1421.4983	1469.7744	1492.4742	1504.9345	2344.5196	2997.6024	3079.5904	3143.2536	3148.0706	3229.0733	3243.0404	3803.4758
OCC1(CC1)C#N	OCC1(CC1)C#N	
InChI=1S/C5H7NO/c6-3-5(4-7)1-2-5/h7H,1-2,4H2	InChI=1S/C5H7NO/c6-3-5(4-7)1-2-5/h7H,1-2,4H2
