12
gdb 367	9.64235	1.99929	1.69878	5.1141	43.53	-0.2447	-0.01	0.2348	677.014	0.09331	-343.492484	-343.485107	-343.484162	-343.524104	24.017	
O	 0.0386014508	 1.3747622826	-0.1630970381	-0.392152
C	-0.0375137488	-0.005300105	 0.0737447522	-0.177765
C	-1.4974365634	-0.4543678804	 0.0137218355	 0.381498
O	-2.420100251	 0.3130706088	 0.0267346655	-0.256388
C	-1.6742180718	-1.9707080101	-0.0644008371	-0.177764
O	-3.0132301411	-2.3003397511	 0.1902577425	-0.392152
H	 0.952859748	 1.6481197907	-0.0455496468	 0.293766
H	 0.5432227393	-0.597950184	-0.655280128	 0.100763
H	 0.3407128688	-0.2866308623	 1.0730984077	 0.112833
H	-1.3454517389	-2.2774307839	-1.0737293864	 0.112833
H	-0.9736935817	-2.44376654	 0.6465468181	 0.100763
H	-3.1175284303	-3.2473910854	 0.0613166148	 0.293766
72.977	80.4747	211.8575	225.6522	232.0465	305.9672	411.261	464.303	662.0697	807.434	886.3659	1005.1843	1080.0647	1145.3036	1154.9668	1225.395	1236.5737	1247.4717	1276.4514	1439.7393	1448.5718	1493.0696	1498.3236	1855.1998	2937.9984	2949.4811	2958.7383	2971.3317	3836.88	3837.0287
OCC(=O)CO	OCC(=O)CO	
InChI=1S/C3H6O3/c4-1-3(6)2-5/h4-5H,1-2H2	InChI=1S/C3H6O3/c4-1-3(6)2-5/h4-5H,1-2H2
