12
gdb 3651	6.84537	3.0441	2.16538	3.611	55.31	-0.2556	0.0196	0.2752	572.8344	0.093655	-319.540355	-319.535186	-319.534242	-319.569547	18.587	
C	-0.037833784	 1.5520835579	 0.0298715432	-0.168528
C	 1.5405098324	 1.4047495668	-0.0674119308	-0.366005
C	 1.2965752624	-0.0139112257	 0.4343058548	 0.379283
N	 1.6505894932	-1.2286140047	 0.8114002421	-0.374723
C	 0.4118006727	-1.7550368483	 1.1030088434	 0.024576
N	-0.6518367123	-0.9590327229	 0.932535965	-0.286276
N	-0.0179671853	 0.1528291599	 0.499429596	 0.086298
H	-0.4013039659	 2.2624291786	 0.7753477435	 0.14458
H	-0.5598409259	 1.6924199641	-0.9188607951	 0.144575
H	 1.941548133	 1.4880586135	-1.0791973225	 0.144457
H	 2.0996521389	 2.0581000548	 0.6047228497	 0.144407
H	 0.2889191707	-2.768292604	 1.4562439807	 0.127356
89.0462	253.4384	454.0874	665.1969	696.3023	711.0393	814.934	833.6865	884.6816	885.9765	992.3868	1059.8016	1118.6193	1131.1639	1159.4081	1169.2001	1213.723	1245.0344	1265.8457	1313.7953	1398.176	1474.7706	1489.2357	1519.6232	1576.2728	3075.0926	3085.0723	3130.7483	3143.6802	3259.5445
C1CC2=NC=NN12	C1Cc2ncnn12	
InChI=1S/C4H5N3/c1-2-7-4(1)5-3-6-7/h3H,1-2H2	InChI=1S/C4H5N3/c1-2-7-4(1)5-3-6-7/h3H,1-2H2
