16
gdb 1663	4.79153	1.77337	1.42129	4.1609	58.16	-0.2547	0.0223	0.277	875.3358	0.135383	-362.950092	-362.941543	-362.940598	-362.983502	29.409	
C	-0.100686807	 1.4382372575	 0.0686356743	-0.336173
N	-0.0179114237	-0.0090036206	 0.144898284	-0.308185
C	 0.7147798805	-0.6602614443	 1.078780244	 0.394242
O	 1.3681761412	-0.0969697902	 1.9469727413	-0.395704
C	 0.707656146	-2.1986622222	 1.0096410445	 0.047633
C	 1.4217278012	-2.7097661746	-0.2506569139	-0.389246
O	 1.3303196805	-2.6940663341	 2.1643841149	-0.437231
H	 0.5185435173	 1.8434802516	 0.8691014928	 0.175054
H	 0.2708203204	 1.8068863614	-0.8935708148	 0.130835
H	-1.1311701932	 1.7839535098	 0.2038347812	 0.131141
H	-0.5414163399	-0.5580579565	-0.5170654928	 0.251987
H	-0.3414303628	-2.5364979761	 0.9877461089	 0.080968
H	 2.4468159447	-2.3289672112	-0.2838779096	 0.130218
H	 1.4618263761	-3.8015375986	-0.2210484275	 0.13442
H	 0.905997072	-2.4086335744	-1.1689746476	 0.097927
H	 1.6881685967	-1.9037281577	 2.6051550203	 0.292113
51.9344	76.1833	120.2362	210.321	230.3036	285.949	375.2897	394.7354	468.0274	486.8382	504.497	661.7368	751.7693	848.7968	929.2028	1038.8569	1058.6009	1100.9192	1153.9871	1172.6344	1177.072	1251.8745	1293.5445	1366.2386	1402.9491	1442.0487	1444.8169	1484.2587	1494.5549	1499.1518	1502.7605	1575.6975	1765.8232	2969.0899	3032.3006	3036.3761	3086.1037	3108.9756	3126.1008	3159.5467	3641.8021	3644.5513
CNC(=O)C(C)O	CNC(=O)[C@@H](C)O	
InChI=1S/C4H9NO2/c1-3(6)4(7)5-2/h3,6H,1-2H3,(H,5,7)	InChI=1S/C4H9NO2/c1-3(6)4(7)5-2/h3,6H,1-2H3,(H,5,7)/t3-/m1/s1
