13
gdb 4191	5.04526	1.65503	1.34067	1.8724	64.55	-0.2415	-0.0535	0.188	861.8692	0.095902	-398.537427	-398.531058	-398.530114	-398.567867	24.532	
O	-0.0753384706	 1.31609027	-0.0077102656	-0.379799
N	 0.0233898495	-0.0746690184	 0.0335580427	-0.234457
C	-1.1256860428	-0.6350591029	-0.0013929474	 0.405303
C	-2.4817628966	-0.0660609213	-0.0334312612	-0.164691
C	-3.3929924365	-1.0497275701	 0.052057051	-0.087639
C	-2.7169194484	-2.387701689	 0.0868983851	-0.005075
O	-1.9542344924	-2.6640155884	-1.1072178229	-0.250401
C	-1.2685582619	-2.1267912859	 0.0364059689	-0.062833
H	 0.8476127769	 1.5910637285	 0.0253804426	 0.31319
H	-2.6747249922	 0.9920950664	-0.13507889	 0.130725
H	-4.4679739625	-0.9220721955	 0.057194611	 0.118726
H	-3.1613746758	-3.2522807505	 0.5691066796	 0.105538
H	-0.5005761167	-2.7533139929	 0.4760707661	 0.111413
138.1494	231.8241	283.0988	391.0642	424.2845	473.4296	503.7461	689.9345	722.3022	762.6406	803.3633	845.494	865.0209	876.7335	949.0354	973.2717	1003.3355	1021.8882	1094.9175	1115.75	1236.917	1241.1835	1301.7663	1362.8536	1381.7026	1419.4317	1620.5778	1728.5617	3169.7173	3185.3539	3215.8258	3249.9821	3812.9749
ON=C1C=CC2OC12	ON=C1C=C[C@H]2O[C@@H]12	
InChI=1S/C5H5NO2/c7-6-3-1-2-4-5(3)8-4/h1-2,4-5,7H	InChI=1S/C5H5NO2/c7-6-3-1-2-4-5(3)8-4/h1-2,4-5,7H/t4-,5+/m1/s1
