16
gdb 4187	4.32119	1.42625	1.36163	1.1958	69.39	-0.2278	0.0013	0.2291	957.7303	0.129956	-379.828433	-379.820845	-379.819901	-379.860187	28.636	
C	-0.0577600382	 1.5618947318	 0.0291693334	-0.428843
C	 0.0935076136	 0.062227468	-0.0913646616	 0.024561
C	 0.6127728332	-0.6653906287	-1.2840286909	-0.156087
N	 1.3514453609	-0.6850691636	 0.0730006534	-0.147723
C	 2.4548651156	 0.1384865733	-0.555620701	-0.262235
C	 1.7529868733	 0.0593710966	-1.8943300205	 0.434492
N	 2.0452156012	 0.2606478961	-3.1103515418	-0.259962
O	 3.2952544579	 0.8990149511	-3.2188568733	-0.392807
H	 0.6353988235	 2.1172524371	-0.6048730352	 0.136864
H	-1.0721986773	 1.8473566004	-0.2665684369	 0.130057
H	 0.0880775009	 1.8805652059	 1.0670513032	 0.129523
H	-0.7046490952	-0.4853412305	 0.4084139931	 0.104632
H	 0.1227641976	-1.5381332548	-1.7013847792	 0.112393
H	 2.6206420108	 1.1189622662	-0.1026832401	 0.125459
H	 3.392527365	-0.4230074726	-0.5482943422	 0.140955
H	 3.4081103272	 0.9627812838	-4.1731854603	 0.30872
95.1127	172.9336	210.6164	253.4037	316.0055	359.0572	439.0716	489.479	507.3245	600.4448	701.3675	717.2068	788.414	876.7026	909.9093	963.1254	995.0314	997.3983	1032.9636	1058.0118	1112.8597	1123.8536	1175.1491	1196.4201	1258.4612	1262.6642	1324.4878	1408.2446	1418.0143	1430.2642	1478.2804	1496.3372	1505.1686	1790.9214	3041.6432	3067.4543	3101.817	3114.5738	3117.2955	3138.5498	3178.6675	3819.5402
CC1C2N1CC2=NO	C[C@H]1[C@@H]2N1CC2=NO	
InChI=1S/C5H8N2O/c1-3-5-4(6-8)2-7(3)5/h3,5,8H,2H2,1H3	InChI=1S/C5H8N2O/c1-3-5-4(6-8)2-7(3)5/h3,5,8H,2H2,1H3/t3-,5-,7?/m0/s1
