23
gdb 1189	4.08658	1.55195	1.53869	0.0668	77.42	-0.2984	0.0746	0.373	992.1533	0.216091	-276.202384	-276.192746	-276.191802	-276.235905	35.857	
C	-0.1147954993	 1.5354865732	 0.1817340975	-0.404286
C	 0.0274573399	 0.0252644415	-0.0416553105	-0.172019
C	 0.7590642354	-0.4364736269	-1.3304509844	 0.28302
C	 0.012148303	 0.0725883334	-2.5775347247	-0.409329
C	 2.2039439014	 0.0968552272	-1.3419644837	-0.409324
C	 0.760708515	-1.9884631076	-1.3028660449	-0.172015
C	 1.430930521	-2.7105020755	-2.477754696	-0.404285
H	 0.8562804415	 2.0354081059	 0.2497464111	 0.116342
H	-0.6837044563	 2.0187854481	-0.6184501398	 0.116338
H	-0.6455554056	 1.7292158968	 1.1194735197	 0.111067
H	 0.5513951978	-0.4084816137	 0.8208246625	 0.087272
H	-0.9744302438	-0.4249979027	-0.0394028001	 0.08727
H	-0.018760363	 1.1658331859	-2.6071511009	 0.110647
H	 0.5001638802	-0.2581191235	-3.4992161298	 0.11065
H	-1.021447793	-0.2920097541	-2.5968094183	 0.104537
H	 2.7613728117	-0.2497971203	-0.4640523051	 0.104536
H	 2.7455352698	-0.2335969672	-2.2333120744	 0.110646
H	 2.2269240481	 1.1907001288	-1.3416224459	 0.110648
H	 1.2445917202	-2.3115860374	-0.3712180883	 0.08727
H	-0.2813005944	-2.3284910005	-1.2313218522	 0.08727
H	 0.952105812	-2.4754965724	-3.4332824355	 0.11634
H	 2.4922018543	-2.4583623414	-2.5652929942	 0.11634
H	 1.3655516241	-3.7946774375	-2.3403391323	 0.111066
66.1983	90.3278	199.687	211.8564	244.3053	251.4376	298.3174	324.3566	330.9001	365.0924	406.2275	416.6128	511.5241	704.6522	775.9855	792.4239	842.4052	923.4934	940.4874	996.2042	1006.3972	1010.8966	1042.5606	1053.0056	1101.5978	1119.6824	1213.3939	1236.4963	1257.7025	1299.2558	1361.0204	1367.9023	1376.9917	1401.9955	1411.173	1412.9204	1427.338	1474.2902	1482.7624	1485.3079	1486.9682	1504.705	1507.9307	1509.6283	1511.3192	1517.6149	1518.1279	3003.0316	3010.4689	3028.2932	3033.2401	3035.2368	3039.1822	3041.1795	3043.8267	3095.6328	3096.5144	3099.0719	3099.2489	3103.4933	3108.9557	3111.5185	3112.6405
CCC(C)(C)CC	CCC(C)(C)CC	
InChI=1S/C7H16/c1-5-7(3,4)6-2/h5-6H2,1-4H3	InChI=1S/C7H16/c1-5-7(3,4)6-2/h5-6H2,1-4H3
