17
gdb 2731	5.74016	1.1507	1.09971	1.6142	57.86	-0.267	0.0698	0.3369	1096.1744	0.147165	-383.969892	-383.96139	-383.960446	-384.003723	29.224	
O	-0.0209693361	 1.3743939111	-0.1016350807	-0.419469
C	 0.0133097379	-0.0379783461	-0.1311878187	-0.05836
C	-1.3860229529	-0.6294979793	-0.0752076788	-0.069472
O	-2.079905255	-0.1474297376	-1.214143008	-0.273126
C	-3.4554704028	-0.4901219919	-1.2518722803	-0.069464
C	-3.9853620705	-0.0298516845	-2.600388879	-0.058368
O	-3.3094593729	-0.6660563258	-3.6658772252	-0.419473
H	-0.6636739563	 1.6352049177	-0.7715778695	 0.287602
H	 0.5237460389	-0.4118251656	-1.0336354026	 0.091832
H	 0.5885226183	-0.3681569619	 0.7398423876	 0.111442
H	-1.3501681359	-1.7307291147	-0.0761567544	 0.093223
H	-1.8955494262	-0.3004079097	 0.8435911783	 0.099768
H	-3.5749311541	-1.5802404002	-1.1545397317	 0.099763
H	-4.0018603835	-0.0065257688	-0.426285175	 0.093223
H	-5.0459162402	-0.2872241319	-2.6873979585	 0.111445
H	-3.8984545771	 1.0670570707	-2.6632451859	 0.091828
H	-2.3691325815	-0.5664246517	-3.4767284177	 0.287606
51.9748	69.8236	109.5581	194.7171	209.3318	315.7769	354.8996	427.3175	432.9719	525.3761	537.4242	822.7036	899.8056	912.9893	924.0115	1059.4105	1077.3186	1093.682	1132.5508	1141.6139	1153.194	1221.2164	1248.3042	1258.4408	1269.1844	1374.831	1383.2485	1384.0551	1424.8174	1435.8191	1446.3555	1494.3335	1498.5328	1499.7135	1520.6194	2968.7652	2975.4978	2975.8162	2978.7806	3016.6922	3018.8205	3081.2206	3081.5406	3797.4166	3797.4654
OCCOCCO	OCCOCCO	
InChI=1S/C4H10O3/c5-1-3-7-4-2-6/h5-6H,1-4H2	InChI=1S/C4H10O3/c5-1-3-7-4-2-6/h5-6H,1-4H2
