15
gdb 2589	3.16954	2.70009	1.75939	4.7192	61.71	-0.2375	0.0296	0.2671	751.8157	0.124923	-304.683966	-304.67652	-304.675576	-304.715386	26.91	
C	 0.2296700967	 1.3785361362	 0.258064969	-0.332492
N	-0.2127734546	 0.0810409896	-0.2445381562	-0.33595
C	 0.6156026484	-0.4808452618	-1.275409263	 0.191669
C	 2.0260699139	-1.0088290729	-0.9901570639	-0.291643
C	 0.9004191309	-1.9653799895	-1.2693030251	-0.310353
C	 0.4218197411	 0.1433089054	-2.5694871853	 0.283214
N	 0.2883425247	 0.6540360728	-3.5985700725	-0.348771
H	 1.2570363841	 1.3787190284	 0.6580334387	 0.102298
H	 0.1838799741	 2.1137773601	-0.551394143	 0.148775
H	-0.4529796844	 1.7065345004	 1.0460377999	 0.126163
H	-0.3325102806	-0.5845138488	 0.5082779774	 0.227347
H	 2.7921267826	-0.8767607176	-1.7451017436	 0.140357
H	 2.3675298305	-0.9054070948	 0.0339243213	 0.126309
H	 0.4824164449	-2.5308777949	-0.442708807	 0.12735
H	 0.8840809475	-2.4859571126	-2.2190688967	 0.145725
84.2408	171.9586	209.1373	218.4946	248.9957	364.7393	442.1648	574.5189	602.1364	633.9269	700.3857	775.9312	877.4979	922.7376	943.9983	977.9883	1053.3329	1086.296	1096.3559	1152.4696	1169.6931	1192.3439	1282.005	1326.7823	1458.3249	1459.9218	1482.294	1489.8268	1493.6239	1519.7838	2352.6068	2968.3078	3076.0551	3120.1688	3137.7684	3142.0964	3224.2845	3238.6886	3562.8411
CNC1(CC1)C#N	CNC1(CC1)C#N	
InChI=1S/C5H8N2/c1-7-5(4-6)2-3-5/h7H,2-3H2,1H3	InChI=1S/C5H8N2/c1-7-5(4-6)2-3-5/h7H,2-3H2,1H3
