16
gdb 819	4.9656	1.81417	1.48451	0.6127	64.26	-0.2304	0.0138	0.2442	847.5087	0.135269	-325.72807	-325.720165	-325.719221	-325.760836	28.125	
C	 0.0428778365	 1.4702650766	-0.0013990605	-0.474818
C	-0.0023957972	-0.0353609864	 0.0424377011	 0.359881
N	 0.0255316465	-0.7089002422	 1.1300002418	-0.181193
O	 0.1291574402	 0.1303408357	 2.2542882032	-0.402937
C	-0.0425828982	-0.7897040918	-1.2385875401	-0.069164
C	 1.1929362691	-1.5552679145	-1.697280257	-0.249417
C	-0.0431689975	-2.2949134523	-1.2718068948	-0.263618
H	 0.9558552226	 1.8378284668	 0.4781201422	 0.147486
H	 0.0075912084	 1.839932907	-1.0276795227	 0.116577
H	-0.7939331725	 1.8934458705	 0.5633913341	 0.146397
H	 0.1188122531	-0.5037441517	 2.9785247729	 0.303836
H	-0.5920225811	-0.2813038348	-2.0255225974	 0.087816
H	 1.4500546136	-1.5224844182	-2.7504130812	 0.11169
H	 2.0394622105	-1.560613676	-1.0199561512	 0.122074
H	-0.0260654999	-2.8010710322	-0.3150000379	 0.135964
H	-0.6434622642	-2.7756368866	-2.0360678327	 0.109426
51.883	60.8371	178.615	214.5855	306.0522	358.5921	417.2775	448.1575	566.3722	608.6182	762.617	804.0658	827.7582	904.3966	923.4551	971.6237	1029.8635	1048.332	1061.6355	1086.0966	1119.9299	1127.6208	1202.7735	1205.2891	1243.4561	1381.8406	1399.4184	1426.827	1463.1966	1474.4388	1486.2178	1496.8857	1718.9798	3044.157	3101.3187	3134.6862	3135.5805	3144.6346	3150.0356	3222.3475	3242.0375	3823.6783
CC(=NO)C1CC1	CC(=NO)C1CC1	
InChI=1S/C5H9NO/c1-4(6-7)5-2-3-5/h5,7H,2-3H2,1H3	InChI=1S/C5H9NO/c1-4(6-7)5-2-3-5/h5,7H,2-3H2,1H3
