16
gdb 2311	7.32576	1.38355	1.26267	1.735	66.96	-0.2443	0.0584	0.3027	956.9746	0.13545	-288.582662	-288.574811	-288.573867	-288.61485	28.362	
C	 0.0743158652	 1.5390385637	-0.2217309611	-0.392377
C	 0.0031074219	 0.0556393297	 0.0545366864	-0.00465
N	 1.2685421318	-0.6989342492	 0.042392945	-0.329263
C	 0.504042538	-0.6031698413	 1.2923996142	-0.002786
C	 1.1589397892	 0.1446099457	 2.4460174434	-0.350581
C	 1.9695055188	-0.7341790642	 3.2832500802	 0.29831
C	 2.6190721139	-1.4801113772	 3.9659720054	-0.446891
H	 0.9664043619	 1.9880250417	 0.2200714643	 0.126932
H	 0.1126789521	 1.7236371	-1.30058757	 0.121427
H	-0.8079725875	 2.0530036553	 0.1754062967	 0.115988
H	-0.8596829833	-0.4326565069	-0.3990270134	 0.081362
H	 1.1505969477	-1.6117160813	-0.3872536092	 0.231728
H	-0.0400071605	-1.4898540998	 1.6137319645	 0.090556
H	 1.7840797988	 0.9493484768	 2.0468958459	 0.138664
H	 0.3816542913	 0.6183390988	 3.0606084973	 0.128059
H	 3.2040740109	-2.1282715919	 4.5698034204	 0.193522
56.872	119.8435	166.2707	217.0083	328.818	336.6758	424.8587	473.4161	524.4016	613.5071	636.9382	771.2658	840.5771	866.4598	928.8871	967.2318	984.1141	1032.4762	1033.991	1090.8061	1153.3704	1192.8325	1247.4905	1268.9948	1275.4491	1318.3705	1400.264	1422.7698	1456.9603	1469.2405	1490.0172	1502.7724	2239.2845	3021.9661	3036.4507	3079.022	3095.5254	3097.3321	3120.8789	3130.9836	3507.9565	3513.1908
CC1NC1CC#C	C[C@H]1N[C@H]1CC#C	
InChI=1S/C6H9N/c1-3-4-6-5(2)7-6/h1,5-7H,4H2,2H3	InChI=1S/C6H9N/c1-3-4-6-5(2)7-6/h1,5-7H,4H2,2H3/t5-,6+/m1/s1
