14
gdb 3266	3.67442	3.59191	1.95586	1.4732	54.72	-0.2473	0.0129	0.2602	640.4185	0.115789	-361.709769	-361.703805	-361.70286	-361.739673	21.891	
C	-0.0167065684	 1.3401296157	-0.0510052208	-0.101976
C	 1.2959958946	 2.1067443674	 0.0790151425	-0.149606
N	 2.0922169644	 1.9069760347	 1.2751008982	-0.248903
C	 2.2811020441	 0.8001577814	 1.8464219131	 0.122704
O	 1.7799039212	-0.4486321695	 1.6196637427	-0.224683
C	 0.446787201	-0.620156057	 1.1446113994	 0.021923
O	 0.1785603428	-0.066692697	-0.0939135683	-0.213685
H	-0.6928648933	 1.596066062	 0.7799985346	 0.098628
H	-0.5073031944	 1.6122745606	-0.9904851839	 0.115168
H	 1.9263162512	 1.8554341833	-0.7857531839	 0.127477
H	 1.0710206737	 3.177333034	-0.0009675255	 0.110396
H	 3.0063288782	 0.7423290843	 2.6585695766	 0.121752
H	 0.3273166989	-1.7007331498	 1.0544759246	 0.126928
H	-0.238350884	-0.2136038702	 1.9066499505	 0.093877
116.0702	186.6043	334.0804	420.7849	446.7533	509.3479	601.7694	760.7733	841.8289	878.4822	934.7077	967.1776	1020.3513	1051.8789	1075.1776	1116.1082	1160.944	1215.6271	1268.1198	1309.4118	1343.3122	1381.6312	1402.9916	1430.3062	1454.709	1472.2172	1485.4035	1504.5526	1760.7452	2969.0822	2986.3306	3014.2567	3054.9716	3087.0499	3125.6062	3136.1268
C1CN=COCO1	C1CN=COCO1	
InChI=1S/C4H7NO2/c1-2-6-4-7-3-5-1/h3H,1-2,4H2	InChI=1S/C4H7NO2/c1-2-6-4-7-3-5-1/h3H,1-2,4H2
