14
gdb 4304	3.85903	1.9741	1.31664	4.8522	69.24	-0.2313	-0.0587	0.1725	886.8412	0.107723	-378.756416	-378.749396	-378.748451	-378.787974	25.832	
C	-0.0277278411	 1.4953699324	 0.0004442702	-0.478634
C	 0.0022552075	-0.0056573267	-0.0150200441	 0.325207
N	-0.0290303012	-0.6092657447	-1.1618835466	-0.31135
C	-0.0035700682	-1.9859154279	-1.224713204	 0.422547
N	-0.0312712765	-2.6283587585	-2.3133208631	-0.516949
O	 0.0576307637	-2.7205452456	-0.0013115412	-0.225356
C	 0.0885826776	-2.0649066517	 1.1622148901	 0.099876
C	 0.0643899023	-0.7240431045	 1.2387563393	-0.23527
H	 0.8641772518	 1.8895037851	 0.5013855923	 0.140522
H	-0.0739322511	 1.879960453	-1.0182298891	 0.155016
H	-0.8947534035	 1.8536802147	 0.5676036154	 0.140542
H	-0.0040106123	-3.631324888	-2.1337214697	 0.22545
H	 0.134407458	-2.7399588658	 2.0105766825	 0.144258
H	 0.0903339229	-0.2165975018	 2.192779378	 0.114143
79.2051	128.2695	206.4375	311.5026	382.3858	495.9595	508.741	590.8665	622.7674	723.3279	769.6751	791.7497	801.7701	850.5201	959.4924	966.9502	980.9494	1053.6514	1084.4035	1121.1518	1198.2632	1292.0006	1308.3901	1398.6724	1459.3362	1467.447	1477.7475	1590.2013	1701.3288	1746.3104	3034.0546	3087.9888	3158.762	3193.0291	3234.3359	3507.361
CC1=NC(=N)OC=C1	CC1=CCOC(=N1)[NH]	
InChI=1S/C5H6N2O/c1-4-2-3-8-5(6)7-4/h2-3,6H,1H3	InChI=1S/C5H7N2O/c1-4-2-3-8-5(6)7-4/h2,6H,3H2,1H3
