13
gdb 4754	6.95919	1.31814	1.11606	7.8544	67.84	-0.2485	-0.0188	0.2297	996.7673	0.097646	-357.697006	-357.689938	-357.688994	-357.728852	24.716	
C	 0.0077021025	 1.4637494251	 0.0048719258	-0.342423
N	-0.0054204156	 0.0114309978	 0.0182669049	 0.016478
C	-0.1194850152	-0.8166610703	-1.0660949407	 0.004756
N	-0.0998530437	-2.0831433325	-0.7366730363	-0.310528
C	 0.0341907202	-2.0856199256	 0.6371636209	 0.174717
C	 0.0939694916	-0.7952190106	 1.1182902961	-0.187038
C	 0.0971574096	-3.2797127131	 1.4037006055	 0.217981
N	 0.1509335598	-4.2373817558	 2.0519136903	-0.342216
H	 0.9465104204	 1.8456596305	 0.4151280322	 0.157367
H	-0.0894450096	 1.8065489187	-1.0263477248	 0.15593
H	-0.8264818102	 1.8632670583	 0.5880053543	 0.157365
H	-0.2134731343	-0.4256191878	-2.0686474798	 0.142426
H	 0.1952746546	-0.4034830846	 2.1165486518	 0.155185
67.9591	134.902	157.2718	245.8122	347.5923	517.9673	538.3578	582.0211	638.6559	711.0268	716.2998	778.5893	840.4144	994.6171	1063.9227	1083.0914	1151.9801	1176.8865	1252.295	1305.4375	1382.1686	1418.5373	1459.7642	1483.9619	1511.0213	1532.6532	1570.0378	2352.1699	3050.3775	3117.4571	3147.0556	3250.6952	3280.5533
CN1C=NC(=C1)C#N	Cn1cnc(c1)C#N	
InChI=1S/C5H5N3/c1-8-3-5(2-6)7-4-8/h3-4H,1H3	InChI=1S/C5H5N3/c1-8-3-5(2-6)7-4-8/h3-4H,1H3
