15
gdb 3135	5.65546	2.10511	1.81712	1.1477	56.76	-0.2347	0.0678	0.3025	717.5921	0.124921	-345.599182	-345.592488	-345.591544	-345.629898	24.847	
O	 0.5947742933	 0.3700539828	 0.7634062948	-0.406674
C	-0.1269613165	 0.2035046838	-0.4434057846	-0.181015
C	-1.4589878375	-0.4657511652	-0.24150864	 0.446849
C	-2.2795638382	-0.5036223963	 1.0113828836	-0.341655
C	-1.9173533618	-1.7990750471	 0.3021529008	-0.168957
C	-2.7209459324	-1.8978880291	-0.9866196287	-0.086076
O	-2.3046777363	-0.5632374803	-1.3956454313	-0.324352
H	 0.136190061	 1.0349838359	 1.2868336296	 0.288304
H	-0.2994114105	 1.160607694	-0.9617781339	 0.104987
H	 0.5037557799	-0.4059240863	-1.0989923416	 0.121963
H	-1.7318562048	-0.3490769038	 1.9353715734	 0.114169
H	-3.3004046903	-0.1298641021	 1.0005497982	 0.111411
H	-1.3613939444	-2.5945104824	 0.7788173552	 0.106059
H	-2.3411684547	-2.6479805737	-1.6893469795	 0.110263
H	-3.8111152069	-1.9843143002	-0.9059641561	 0.104724
71.7377	206.3218	238.1138	327.0777	390.7357	408.6045	482.5475	667.7262	752.0917	806.2202	880.2015	945.2104	970.5798	985.2243	991.0942	1023.2269	1042.2437	1071.7126	1086.7474	1130.0331	1149.7541	1175.3732	1218.7986	1275.8035	1334.2848	1385.9636	1395.1377	1418.9897	1482.4933	1502.6231	1518.5889	2979.75	3023.6844	3072.235	3073.2405	3111.5982	3205.088	3213.0292	3820.2742
OCC12CC1CO2	OC[C@]12C[C@H]1CO2	
InChI=1S/C5H8O2/c6-3-5-1-4(5)2-7-5/h4,6H,1-3H2	InChI=1S/C5H8O2/c6-3-5-1-4(5)2-7-5/h4,6H,1-3H2/t4-,5+/m0/s1
