11
gdb 1373	7.00256	1.50522	1.23891	1.8946	58.92	-0.2655	-0.0703	0.1952	871.044	0.079516	-335.632054	-335.625156	-335.624212	-335.663291	23.481	
N	 0.9248261753	 0.1209032048	-0.5965466607	-0.459214
C	-0.1536040948	 0.5375152072	-0.0727285682	 0.104093
N	-1.3190514018	-0.1973143914	-0.2400796152	-0.302396
C	-2.5446637195	 0.1544871195	 0.2799440734	 0.314618
N	-2.7274108322	 1.2079241089	 0.976886182	-0.503368
C	-3.601758697	-0.7901767865	-0.0442210657	 0.228571
N	-4.471682443	-1.5147413429	-0.2782640094	-0.308096
H	 1.6900435411	 0.7598182038	-0.3897134029	 0.239602
H	-0.3068502749	 1.43833102	 0.5227372757	 0.153171
H	-1.2378347415	-1.0442120912	-0.7843769805	 0.281515
H	-3.6968441016	 1.2952505678	 1.2698687014	 0.251504
108.7722	139.9328	142.8398	263.4377	327.6638	477.2816	509.2955	585.9822	629.1399	725.1506	824.313	834.6336	938.2302	1063.1729	1085.738	1157.3334	1263.8097	1323.9952	1396.2565	1528.3535	1687.4365	1731.4897	2351.0063	3135.6944	3513.5562	3538.7928	3620.1978
N=CNC(=N)C#N	N=CNC(=N)C#N	
InChI=1S/C3H4N4/c4-1-3(6)7-2-5/h2H,(H3,5,6,7)	InChI=1S/C3H4N4/c4-1-3(6)7-2-5/h2H,(H3,5,6,7)
