12
gdb 553	10.17573	2.39853	2.15322	1.2731	51.72	-0.2533	0.0374	0.2907	579.431	0.095926	-269.170061	-269.164157	-269.163213	-269.199558	20.748	
C	-0.1272592901	-1.240583378	-0.1645614853	-0.459494
C	-0.0626858751	-0.0435639941	-0.0706449346	 0.320417
C	 0.0305261932	 1.3936228229	 0.0593528428	-0.208004
C	-0.0911004159	 2.026815157	 1.4750335805	-0.073468
O	 1.1286708223	 2.7677838073	 1.2916938779	-0.26743
C	 1.438994004	 2.0536172764	 0.0816697879	-0.073468
H	-0.1882671148	-2.2971276437	-0.251815894	 0.200855
H	-0.6310670647	 1.8872238946	-0.6576677313	 0.114473
H	-0.953357034	 2.6804475436	 1.6435489902	 0.111405
H	-0.0164217305	 1.29703773	 2.2904407522	 0.111655
H	 2.2577229413	 1.3368729713	 0.2195173446	 0.111655
H	 1.6745511844	 2.7264816129	-0.749524441	 0.111405
93.6418	176.6893	233.006	501.9413	506.6779	622.9109	637.9057	674.5525	871.3626	891.7132	980.3493	1003.8463	1041.5654	1100.4615	1114.5335	1158.8863	1171.8123	1238.4562	1304.7754	1340.7668	1380.0317	1511.3833	1537.108	2237.4774	3018.2836	3028.4817	3062.4977	3076.0527	3085.7988	3503.8464
C#CC1COC1	C#CC1COC1	
InChI=1S/C5H6O/c1-2-5-3-6-4-5/h1,5H,3-4H2	InChI=1S/C5H6O/c1-2-5-3-6-4-5/h1,5H,3-4H2
