16
gdb 4459	3.48581	1.78496	1.19804	2.0457	68.11	-0.1898	0.0558	0.2456	984.6806	0.130761	-379.981435	-379.973197	-379.972253	-380.01384	30.04	
C	-0.150930745	 1.5297355047	 0.1290244011	-0.509447
C	-0.0195576317	 0.0527227984	-0.0150146153	 0.224662
C	 0.0428299347	-0.7875833601	-1.0937231056	 0.205999
C	-0.0055647218	-0.4569372539	-2.5491670886	-0.489741
N	 0.16792994	-2.1133573019	-0.676979858	-0.416067
C	 0.1790003623	-2.0528295642	 0.6233991098	 0.428747
O	 0.2831856132	-3.0840975413	 1.4813309526	-0.427863
N	 0.070588857	-0.7895212867	 1.1001126221	-0.355202
H	 0.7047339509	 1.9750379972	 0.6533912549	 0.125155
H	-0.2091042779	 1.9981996279	-0.855713413	 0.139947
H	-1.0556425333	 1.8154934818	 0.6814776273	 0.125102
H	 0.9031119183	-0.7944349582	-3.0605026878	 0.129192
H	-0.85037162	-0.9548100537	-3.0385276314	 0.129212
H	-0.1060241567	 0.6189754571	-2.7147272928	 0.113099
H	 0.3478143262	-3.8774040343	 0.9349140307	 0.312172
H	 0.0597991136	-0.5212832629	 2.0691106139	 0.265033
101.5729	142.4177	187.8839	224.6209	265.341	297.0299	339.7798	413.2265	455.65	502.741	620.8362	634.5472	662.184	725.5256	803.3821	981.3719	997.2401	1060.2615	1066.3271	1070.2818	1177.7329	1182.8864	1247.4374	1295.4342	1401.2788	1425.6772	1426.2993	1473.0341	1479.0386	1493.0135	1497.0107	1568.4541	1628.7142	1662.1463	3010.211	3029.8041	3050.4811	3079.0327	3114.2352	3124.8045	3673.2639	3805.3162
CC1=C(C)N=C(O)N1	Cc1c(C)nc(O)[nH]1	
InChI=1S/C5H8N2O/c1-3-4(2)7-5(8)6-3/h1-2H3,(H2,6,7,8)	InChI=1S/C5H8N2O/c1-3-4(2)7-5(8)6-3/h1-2H3,(H2,6,7,8)
