14
gdb 715	5.97304	5.2497	4.16578	0.2808	55.83	-0.2442	0.1074	0.3515	420.7831	0.122208	-233.24225	-233.237852	-233.236908	-233.269547	18.147	
C	-0.0135962567	 1.4908256789	 0.1368495624	-0.219952
C	 1.5033833749	 1.4193699005	-0.0216615295	-0.053681
C	 1.9715349874	 0.10491215	 0.6255989856	-0.053684
C	 0.7321800545	-0.6031539739	 1.1679143761	-0.219951
C	 0.0000441088	-0.0472932609	-0.0852003956	-0.053803
C	 1.4174514586	 0.1158286322	-0.7791068732	-0.071189
H	-0.4371212867	 1.8618826693	 1.0782096336	 0.084277
H	-0.4735381541	 2.0161036876	-0.7050718919	 0.095754
H	 2.1994646424	 2.2325849375	-0.183806688	 0.080488
H	 3.0032165062	-0.024149748	 0.9274519278	 0.080488
H	 0.8463636643	-1.6898626753	 1.1197215966	 0.095755
H	 0.3390117396	-0.3173708185	 2.1512559117	 0.084275
H	-0.8672502028	-0.5590539005	-0.4972099543	 0.066585
H	 1.8286448536	-0.2036654887	-1.7253460514	 0.084639
421.8872	425.9975	721.2843	723.2948	783.2087	785.4687	804.9266	877.5605	918.9614	949.1012	989.0409	990.5022	991.1027	1018.2487	1030.7858	1058.7428	1081.1775	1128.1609	1154.3512	1169.8126	1188.8397	1224.3763	1253.4156	1284.8642	1322.4311	1366.1613	1492.0062	1508.4781	3022.6944	3029.6843	3089.9081	3091.9779	3134.8334	3188.938	3196.2277	3224.4874
C1C2C3CC1C23	C1[C@H]2[C@H]3C[C@@H]1[C@@H]23	
InChI=1S/C6H8/c1-3-2-5-4(1)6(3)5/h3-6H,1-2H2	InChI=1S/C6H8/c1-3-2-5-4(1)6(3)5/h3-6H,1-2H2/t3-,4+,5-,6+
