17
gdb 1930	3.5959	2.77449	2.16591	1.7772	64.57	-0.224	0.0877	0.3117	706.6212	0.147212	-309.68728	-309.680011	-309.679067	-309.717983	27.425	
C	 0.0035832853	 1.5711520236	-0.0290955104	-0.49427
C	 0.000272274	 0.072735848	 0.0373427301	 0.215662
C	 1.1708861046	-0.8087056347	-0.372581602	-0.378948
C	 0.60162967	-0.9246332586	 1.0121241542	 0.437437
C	 1.3410931496	-0.8280747945	 2.305818072	-0.486208
O	-0.5633463986	-1.7660533752	 0.9757085859	-0.324826
C	-1.2375764423	-0.8164187899	 0.1087543175	-0.123451
H	 0.9903080592	 1.9751653014	 0.2198203264	 0.119877
H	-0.2490754612	 1.9281041109	-1.0351359301	 0.122476
H	-0.7205328733	 2.0057298036	 0.6695112951	 0.118676
H	 1.0379390789	-1.6245920831	-1.079149745	 0.107698
H	 2.1197126574	-0.2849259561	-0.4493962622	 0.107058
H	 2.1487127157	-0.0937563879	 2.2334599762	 0.121206
H	 0.6718982054	-0.5349147933	 3.1208686737	 0.125991
H	 1.7882584906	-1.7946023367	 2.5652840203	 0.132643
H	-2.0806813984	-0.3482824173	 0.6324250254	 0.10037
H	-1.5935052168	-1.2781254002	-0.8209002071	 0.098611
167.5802	178.4846	190.4483	239.2957	324.2596	360.9331	433.1866	476.2818	593.9449	688.9433	759.0853	836.3841	911.6002	937.9119	960.5386	982.2137	996.593	1035.7691	1053.3302	1109.6441	1119.5361	1158.1921	1198.7123	1239.3904	1287.6811	1348.0978	1399.939	1414.6777	1433.6033	1473.2201	1485.6964	1491.9969	1497.82	1509.1293	1525.0019	3009.3144	3020.399	3031.5791	3056.626	3077.0112	3094.314	3095.3841	3104.4432	3114.2203	3196.2121
CC12CC1(C)OC2	C[C@@]12C[C@]1(C)OC2	
InChI=1S/C6H10O/c1-5-3-6(5,2)7-4-5/h3-4H2,1-2H3	InChI=1S/C6H10O/c1-5-3-6(5,2)7-4-5/h3-4H2,1-2H3/t5-,6-/m0/s1
