14
gdb 1113	5.19895	1.74247	1.38065	2.5427	55.21	-0.2461	-0.0319	0.2142	848.6613	0.111856	-361.774979	-361.767214	-361.76627	-361.807669	27.115	
C	 0.178562845	 1.2181523602	-0.0262070149	-0.470587
C	-0.3423212247	-0.1368987264	-0.4498497353	 0.383354
O	 0.2259821728	-0.803573724	-1.2906952027	-0.310015
C	-1.6302265309	-0.6014195922	 0.2236064419	-0.401806
C	-1.7276835863	-2.090759868	 0.6009851282	 0.384274
N	-1.2895567544	-2.9514312719	-0.3550041819	-0.509914
O	-2.2213833044	-2.4306928882	 1.6571921466	-0.355119
H	 1.0378553768	 1.4998215912	-0.6354376916	 0.147242
H	-0.6095028228	 1.9747421621	-0.1105811838	 0.146202
H	 0.4687806062	 1.1837633671	 1.0305922645	 0.15483
H	-1.8402661096	-0.0261279918	 1.1260667166	 0.137822
H	-2.4400990863	-0.390354726	-0.4890827666	 0.16137
H	-0.6874379002	-2.5934297754	-1.0849827957	 0.275318
H	-1.2440757013	-3.9264421669	-0.1041899554	 0.257028
47.7634	73.201	157.4835	236.9674	338.0861	383.19	472.1242	494.8394	542.2781	560.125	629.3071	708.8188	829.9115	865.0623	896.2665	987.5098	1041.877	1136.9937	1176.4353	1195.5536	1318.6685	1357.098	1385.0713	1442.4035	1460.4828	1474.0334	1614.3866	1792.414	1810.495	3030.412	3036.2295	3096.3265	3130.4375	3156.0271	3532.6586	3688.3861
CC(=O)CC(N)=O	CC(=O)CC(=O)N	
InChI=1S/C4H7NO2/c1-3(6)2-4(5)7/h2H2,1H3,(H2,5,7)	InChI=1S/C4H7NO2/c1-3(6)2-4(5)7/h2H2,1H3,(H2,5,7)
