14
gdb 1109	5.61461	1.79045	1.37102	5.6702	56.17	-0.2454	0.0094	0.2548	846.5743	0.113783	-357.949026	-357.941268	-357.940324	-357.980991	27.526	
C	-0.0210560557	 1.5031272804	-0.057889075	-0.468061
C	 0.160501711	 0.006759711	 0.0082937503	 0.382784
N	 1.3126563247	-0.5184720601	-0.0372225397	-0.491109
N	-1.0746421519	-0.6765119366	 0.1139796525	-0.394532
C	-1.2465843013	-2.0493828513	 0.218000372	 0.476463
N	-2.5745190428	-2.4290428488	 0.324173073	-0.562757
O	-0.3333908202	-2.851308327	 0.2558541685	-0.373425
H	 0.958511413	 1.9708164723	-0.1438068911	 0.158745
H	-0.6336221227	 1.790100054	-0.9207547447	 0.128005
H	-0.519955202	 1.8808508494	 0.8427927645	 0.129218
H	 1.2427805463	-1.5350603693	 0.0298371858	 0.249535
H	-1.8952587665	-0.0996616215	 0.2104430542	 0.24543
H	-3.2815995457	-1.8650139516	-0.1218651824	 0.251389
H	-2.7051575562	-3.4237109308	 0.2190553121	 0.268312
85.7668	108.6555	160.413	220.7191	353.9215	368.5188	421.929	494.8682	524.5723	539.6379	561.9825	685.1805	772.5651	907.4008	964.8188	970.1824	1060.2651	1082.2914	1103.8884	1144.4739	1300.2857	1375.1617	1414.7394	1473.6869	1485.4329	1520.7635	1628.1649	1741.9388	1813.746	3029.7958	3083.4255	3167.3089	3478.0744	3578.5854	3627.091	3694.5783
CC(=N)NC(N)=O	CC(=N)NC(=O)N	
InChI=1S/C3H7N3O/c1-2(4)6-3(5)7/h1H3,(H4,4,5,6,7)	InChI=1S/C3H7N3O/c1-2(4)6-3(5)7/h1H3,(H4,4,5,6,7)
