12
gdb 4241	3.9698	2.02811	1.34233	3.2855	59.74	-0.2554	-0.0481	0.2073	825.2523	0.086103	-414.720389	-414.714133	-414.713189	-414.751024	23.439	
N	-0.0616490642	 1.2936069416	 0.3578393217	-0.554525
C	-0.0049629153	 0.0981657309	-0.0405135881	 0.47649
N	-1.1275981089	-0.6936118879	-0.1638555649	-0.394468
C	-1.1957249548	-2.0217825959	-0.5904806723	 0.442133
O	-2.2540406389	-2.607492666	-0.6541059403	-0.36205
C	 0.1178885247	-2.5718644991	-0.9296582916	-0.284653
C	 1.2028396393	-1.8027545382	-0.8092185978	 0.092622
O	 1.1871557186	-0.5143634463	-0.3854708805	-0.226569
H	 0.8641156461	 1.7139520706	 0.3833805618	 0.236778
H	-2.0012935911	-0.251188355	 0.0868230329	 0.28159
H	 0.1816736268	-3.5940687041	-1.2720740565	 0.139084
H	 2.2140268177	-2.1190079607	-1.0352212443	 0.153567
113.3927	158.3419	376.2328	378.2157	497.9647	530.4532	574.0241	650.2728	711.8569	745.2154	765.5799	806.7982	833.2156	891.6606	972.8376	976.7932	1044.3527	1112.0918	1235.3543	1297.1717	1383.1752	1410.0684	1424.2265	1679.6394	1785.8751	1814.0982	3216.6446	3254.6367	3538.9971	3615.8351
N=C1NC(=O)C=CO1	[NH][C]1NC(=O)C=CO1	
InChI=1S/C4H4N2O2/c5-4-6-3(7)1-2-8-4/h1-2H,(H2,5,6,7)	InChI=1S/C4H4N2O2/c5-4-6-3(7)1-2-8-4/h1-2H,(H2,5,6,7)
