14
gdb 407	5.91437	3.00538	2.3965	2.9392	54.61	-0.2482	-0.0141	0.2341	572.0979	0.118497	-270.439135	-270.432679	-270.431735	-270.468877	23.265	
C	-0.0515290574	 1.5300843085	 0.0601688435	-0.463905
C	-0.0060200182	 0.0185937533	 0.0445486607	 0.264171
C	 1.2991498704	-0.7031266529	-0.2801825461	-0.297459
C	 0.7781645064	-0.7332368928	 1.1167440265	-0.297457
C	-1.2339335293	-0.6650616612	-0.4281426179	 0.120027
O	-2.2386513241	-0.1041658064	-0.790776304	-0.268077
H	 0.8936236677	 1.9454451913	 0.4214683285	 0.109737
H	-0.2409855139	 1.9234178004	-0.9428596283	 0.13398
H	-0.8566393643	 1.8878209745	 0.7086249907	 0.133974
H	 1.2456458648	-1.6124747427	-0.8698921777	 0.124339
H	 2.148685287	-0.0697776954	-0.509100799	 0.128336
H	 1.261539017	-0.1210486465	 1.8696182882	 0.128336
H	 0.36455416	-1.6633975432	 1.4925919223	 0.124339
H	-1.1651128561	-1.779859627	-0.4265200373	 0.059661
130.2021	186.5103	250.331	318.2059	336.3611	398.2706	543.8722	767.6421	785.0021	813.4066	915.6712	919.5416	966.0306	1048.4652	1048.491	1080.413	1090.3833	1121.9961	1196.1823	1299.3419	1353.1286	1416.3193	1440.1661	1465.3839	1485.0753	1496.2656	1500.2653	1817.3105	2839.9822	3042.9453	3112.4274	3116.604	3133.5707	3135.7094	3214.2852	3228.2056
CC1(CC1)C=O	CC1(CC1)C=O	
InChI=1S/C5H8O/c1-5(4-6)2-3-5/h4H,2-3H2,1H3	InChI=1S/C5H8O/c1-5(4-6)2-3-5/h4H,2-3H2,1H3
