15
gdb 1288	6.33957	1.33199	1.1392	4.0322	54.97	-0.2398	0.0615	0.3013	993.3409	0.125275	-379.006904	-378.998708	-378.997764	-379.04013	28.576	
N	-0.0516659917	 1.3352046399	-0.1571899357	-0.564146
C	 0.0307278631	-0.0329957954	 0.0903106232	 0.453465
O	 1.0323643043	-0.5572096519	 0.5431821525	-0.396499
N	-1.1085762888	-0.7270039858	-0.24001535	-0.338978
C	-1.117989427	-2.1768117776	-0.2466875877	-0.12293
C	-2.5193563578	-2.6925237735	 0.0307481242	-0.085929
O	-3.3654220557	-2.1775474032	-0.9935261706	-0.426706
H	 0.6805008387	 1.8490595236	 0.3094184104	 0.257818
H	-0.961057159	 1.7668490396	-0.0832563177	 0.244299
H	-1.7937051135	-0.2911279351	-0.8372542384	 0.246731
H	-0.7741613579	-2.577728028	-1.2114936531	 0.110641
H	-0.4193503401	-2.5179565487	 0.5196461209	 0.141541
H	-2.5115715516	-3.7928719206	 0.0278948018	 0.093185
H	-2.8483364933	-2.3516278071	 1.0234563426	 0.095786
H	-4.2751195698	-2.4038460362	-0.7811510824	 0.291721
36.4324	115.057	120.8904	242.3215	268.132	312.7795	386.2829	446.7537	495.4624	540.1997	568.893	659.9324	777.4412	849.0874	917.0374	1009.9777	1081.9721	1097.7668	1110.6134	1166.1351	1215.6943	1261.4269	1291.472	1328.5456	1400.1009	1457.4254	1496.7419	1513.2467	1536.1909	1627.1199	1800.3151	2984.1907	2998.3929	3026.7615	3123.2679	3570.7874	3631.0358	3685.1978	3838.1026
NC(=O)NCCO	NC(=O)NCCO	
InChI=1S/C3H8N2O2/c4-3(7)5-1-2-6/h6H,1-2H2,(H3,4,5,7)	InChI=1S/C3H8N2O2/c4-3(7)5-1-2-6/h6H,1-2H2,(H3,4,5,7)
