16
gdb 3296	4.65397	2.66529	2.15405	1.5127	59.65	-0.2097	0.0599	0.2697	657.5896	0.138048	-325.720699	-325.714314	-325.71337	-325.751034	24.264	
O	-0.1565278734	 1.4594399446	 0.2843329535	-0.426274
C	-0.0055670818	 0.0799189332	 0.0382804207	 0.108661
C	 0.3576356377	-0.8524548761	 1.2306952444	-0.212115
N	-0.8647110595	-1.6892603476	 0.9997620185	-0.131496
C	-2.0038338982	-1.2856738834	 1.8879251659	-0.161466
C	-2.4799330359	-0.2030216533	 0.88181757	-0.250267
C	-1.340117369	-0.6857618061	-0.0430141659	 0.01764
H	 0.7183554049	 1.8557155098	 0.3433424912	 0.286507
H	 0.6271086286	-0.0964216255	-0.8419254369	 0.071102
H	 1.2856545729	-1.4240959804	 1.1301191766	 0.098549
H	 0.3634119838	-0.3299358484	 2.1950524284	 0.096956
H	-2.7067495458	-2.1132439279	 2.0256618104	 0.103225
H	-1.691619161	-0.932988783	 2.8770478358	 0.099486
H	-3.4861114283	-0.3456221766	 0.4832639101	 0.102162
H	-2.3715859435	 0.8309876925	 1.212093114	 0.12584
H	-1.6278664214	-1.0723714919	-1.0242595565	 0.07149
73.0687	231.7863	240.3514	377.5381	405.6332	519.7598	657.9934	719.8973	773.3147	812.373	862.8545	912.3026	927.5581	974.2723	992.7075	1021.5794	1060.7328	1080.0796	1163.9937	1168.2762	1195.4037	1213.8404	1216.2235	1234.2812	1263.538	1288.1763	1308.6197	1318.3492	1351.2284	1426.4378	1484.0334	1487.2032	1511.7593	3004.644	3022.2204	3033.6779	3065.9167	3077.0583	3078.8423	3081.4596	3136.5449	3820.7169
OC1CN2CCC12	O[C@H]1CN2CC[C@@H]12	
InChI=1S/C5H9NO/c7-5-3-6-2-1-4(5)6/h4-5,7H,1-3H2	InChI=1S/C5H9NO/c7-5-3-6-2-1-4(5)6/h4-5,7H,1-3H2/t4-,5-/m0/s1
