17
gdb 3261	3.36984	3.2805	1.77597	0.0455	70.9	-0.2308	0.0243	0.255	736.4051	0.150639	-272.591906	-272.585348	-272.584404	-272.622713	24.94	
C	-0.0907528516	 1.426536532	 0.1490261879	-0.241457
C	 1.1982800939	 2.262945629	 0.0804674782	-0.241436
C	 2.2961202474	 1.8427158658	 1.0238945651	-0.062565
C	 2.7094857833	 0.6112544982	 1.3198642101	-0.034121
C	 2.2573096384	-0.7252701744	 0.7993143214	-0.298083
C	 1.0171278677	-0.8723890578	-0.038594395	-0.034137
C	 0.0398371203	-0.0059150122	-0.3014560807	-0.062571
H	-0.4767675741	 1.4586519151	 1.1772775461	 0.112826
H	-0.8523574513	 1.9164888124	-0.4687248951	 0.095126
H	 1.5715876989	 2.2500045165	-0.9528854799	 0.112827
H	 0.9421239718	 3.3080743023	 0.2897828344	 0.095125
H	 2.8195983603	 2.6624703909	 1.5127063334	 0.079797
H	 3.5353180062	 0.5265463736	 2.0255203639	 0.0809
H	 3.1014436354	-1.1608089384	 0.2383439266	 0.118525
H	 2.1547791648	-1.4090625794	 1.658902075	 0.118541
H	 0.9113551119	-1.8735342511	-0.4552951699	 0.080903
H	-0.7840987334	-0.3719191625	-0.9114788115	 0.079801
48.7792	182.165	322.5973	372.568	425.7938	432.8922	612.2302	710.5111	725.2665	766.6273	837.9894	870.857	899.0366	942.9658	969.9629	1009.1229	1017.4071	1043.4059	1069.102	1083.0343	1193.2805	1241.3848	1259.386	1264.5277	1297.3978	1354.4379	1380.1655	1404.7148	1428.383	1444.522	1451.6424	1480.7586	1484.7445	1741.3548	1748.1898	2969.7057	2974.1453	3008.8568	3014.6666	3052.3656	3053.7721	3119.2845	3119.9399	3145.3967	3147.6646
C1CC=CCC=C1	C1CC=CCC=C1	
InChI=1S/C7H10/c1-2-4-6-7-5-3-1/h1-2,5,7H,3-4,6H2	InChI=1S/C7H10/c1-2-4-6-7-5-3-1/h1-2,5,7H,3-4,6H2
