19
gdb 1816	3.86324	1.99915	1.91105	1.4185	66.74	-0.2565	0.0793	0.3358	805.2837	0.169757	-310.911529	-310.903206	-310.902262	-310.943554	31.651	
C	 0.1143850915	 1.4801902483	 0.0191535984	-0.387894
C	 0.0004002153	-0.0471674688	 0.0465961955	 0.335081
C	 0.5754063973	-0.5972916455	 1.3602611004	-0.428342
O	-1.4095081269	-0.3157646118	 0.0008550475	-0.462359
C	 0.6391631549	-0.6321324797	-1.2103958711	 0.012633
C	 2.0898400329	-1.0176207692	-1.3272263329	-0.273931
C	 1.0251685431	-2.0878068115	-1.3443869381	-0.29752
H	 1.1620166557	 1.7912934888	 0.0596064945	 0.112636
H	-0.3329945002	 1.8768303559	-0.8965728757	 0.116844
H	-0.4150129631	 1.9149228479	 0.8718677365	 0.116962
H	 0.0232881711	-0.1622079845	 2.1973055202	 0.124205
H	 0.4682782397	-1.6850916027	 1.4239867934	 0.106415
H	 1.6342428502	-0.3508170966	 1.4840718731	 0.114715
H	-1.5108286447	-1.262734612	-0.1450528208	 0.273648
H	 0.204120478	-0.1963680926	-2.1063437971	 0.087126
H	 2.6077178152	-0.7850415461	-2.2512157892	 0.111637
H	 2.7153640654	-0.9527854644	-0.4440835493	 0.113208
H	 0.9557138794	-2.7328161209	-0.4750293104	 0.112116
H	 0.8075198552	-2.5885622645	-2.2814043449	 0.112819
60.3252	194.3917	237.5272	247.9009	266.4032	309.8317	351.5209	364.007	427.7073	483.5174	506.8861	688.3984	788.8726	833.4342	864.6552	926.0787	935.8205	943.9842	966.2883	1014.5205	1055.4745	1071.0064	1083.0887	1137.2377	1148.4665	1193.6839	1201.7727	1225.5757	1284.8844	1349.2508	1387.8819	1410.0909	1418.1826	1463.1006	1476.9946	1487.5373	1500.1268	1506.2121	1508.5467	3037.1024	3044.0691	3104.5322	3115.3679	3119.6758	3123.7632	3134.1937	3135.7166	3140.7949	3210.1715	3225.2741	3802.8149
CC(C)(O)C1CC1	CC(C)(O)C1CC1	
InChI=1S/C6H12O/c1-6(2,7)5-3-4-5/h5,7H,3-4H2,1-2H3	InChI=1S/C6H12O/c1-6(2,7)5-3-4-5/h5,7H,3-4H2,1-2H3
