14
gdb 962	3.51438	3.46311	1.78289	1.8213	59.48	-0.2264	0.0118	0.2382	697.1342	0.11377	-324.624987	-324.618145	-324.617201	-324.655847	24.096	
C	 0.1383943021	 1.5136923191	 0.045551485	-0.495054
C	-0.0469045108	 0.0430965387	-0.0348116864	 0.265653
C	-1.1109826537	-0.8019378877	 0.0012038644	 0.177204
C	-2.5662253295	-0.5065420528	 0.1454130595	-0.492049
N	-0.648351038	-2.1153438717	-0.1245482867	-0.303252
C	 0.6314906974	-1.9955394878	-0.2263903836	 0.061229
O	 1.0867246884	-0.7244972941	-0.1822285039	-0.178085
H	 0.7662499086	 1.7942329257	 0.8988494682	 0.141399
H	 0.6164100581	 1.9090364325	-0.8578985473	 0.141401
H	-0.8292569117	 2.0067502756	 0.1603281707	 0.139066
H	-3.128043439	-0.8818723601	-0.7165287347	 0.13889
H	-2.977457719	-0.9949844893	 1.0352585795	 0.13887
H	-2.749868993	 0.5674869245	 0.2306554653	 0.12014
H	 1.3714723101	-2.7723828427	-0.34073974	 0.144588
104.0889	133.0799	225.5677	258.9251	287.4242	401.1498	637.9962	645.806	689.0679	714.2131	836.315	953.409	969.0305	979.2626	1062.3354	1069.6954	1123.2195	1175.4316	1224.126	1299.854	1361.6575	1420.7219	1423.8876	1472.1892	1475.4603	1490.1301	1491.4195	1566.1817	1683.3082	3031.658	3037.08	3081.9021	3091.5692	3119.2336	3130.5918	3272.2974
CC1=C(C)N=CO1	Cc1c(C)nco1	
InChI=1S/C5H7NO/c1-4-5(2)7-3-6-4/h3H,1-2H3	InChI=1S/C5H7NO/c1-4-5(2)7-3-6-4/h3H,1-2H3
