16
gdb 4495	3.57403	1.73257	1.1841	1.678	69.55	-0.1875	0.0286	0.216	1001.5769	0.128804	-383.78057	-383.771921	-383.770977	-383.813824	30.426	
C	 0.0893853012	 1.4477762141	-0.0190621197	-0.490834
C	-0.0661400412	-0.0304425858	-0.0091334	 0.378916
C	-1.1490864059	-0.851981823	 0.0690433349	-0.415047
C	-0.6338600348	-2.1904177914	 0.0300894845	 0.230315
O	-1.3283064959	-3.3646521427	 0.0812739402	-0.447844
C	 0.7209863295	-2.1012313715	-0.0686375866	 0.256154
C	 1.8009495695	-3.1144988026	-0.1483888234	-0.500277
O	 1.0704687108	-0.7702129658	-0.0924496769	-0.217998
H	 0.7015910005	 1.793940185	 0.8217765499	 0.137057
H	 0.5736654491	 1.7955733116	-0.9389409534	 0.137018
H	-0.8901477541	 1.9258588045	 0.0525048651	 0.131719
H	-2.1824843078	-0.5474133754	 0.1447908742	 0.09917
H	-2.2664930519	-3.1645788532	 0.1352564125	 0.298112
H	 2.3819149369	-3.0246827686	-1.0744021045	 0.129677
H	 2.5048332731	-3.0334483126	 0.6889667173	 0.129679
H	 1.355230271	-4.1117077925	-0.1221230341	 0.144183
86.1107	109.5453	148.2107	173.0103	232.7204	237.9481	277.0088	361.339	480.7119	592.9633	629.0883	645.404	672.693	756.3266	799.3287	943.372	1015.6152	1031.5467	1058.9237	1067.2225	1099.7016	1174.7153	1239.3205	1300.6072	1320.1188	1409.875	1416.8986	1452.7613	1471.7702	1474.5033	1492.1899	1496.4067	1616.9728	1720.6728	3019.1547	3027.8446	3064.0539	3076.6899	3126.3787	3127.4899	3238.7401	3852.3294
CC1=CC(O)=C(C)O1	Cc1cc(O)c(C)o1	
InChI=1S/C6H8O2/c1-4-3-6(7)5(2)8-4/h3,7H,1-2H3	InChI=1S/C6H8O2/c1-4-3-6(7)5(2)8-4/h3,7H,1-2H3
