15
gdb 2391	6.30271	1.93741	1.93741	0.0004	56.27	-0.2539	0.0525	0.3064	705.9461	0.125547	-345.600825	-345.594416	-345.593472	-345.631769	22.707	
C	 0.1032859829	 1.5612635578	-0.0618975995	-0.130612
O	 1.4637035957	 1.5104565985	 0.4105540383	-0.272064
C	 1.4406407627	 0.0701282026	 0.4484984737	-0.130631
C	-0.0125770378	 0.0277545657	-0.0529749317	 0.235867
C	-1.1349552287	-0.7288874488	 0.6770304552	-0.130617
O	-1.4891381881	-1.4547018903	-0.516399366	-0.272063
C	-0.4594321463	-0.7913533087	-1.275473222	-0.130627
H	-0.5592819693	 2.0886958423	 0.6377030034	 0.103845
H	 0.0250412277	 2.0346880149	-1.0499030345	 0.103842
H	 2.1855129819	-0.3744887593	-0.2253823741	 0.103837
H	 1.6016403417	-0.3204276278	 1.4623743332	 0.103849
H	-0.8060636148	-1.3956186929	 1.4856940475	 0.103835
H	-1.9621011152	-0.106686117	 1.0445757108	 0.103852
H	-0.8704931221	-0.2074664226	-2.1101741902	 0.103847
H	 0.2851197995	-1.4966499947	-1.6686782742	 0.103839
81.5142	81.5157	266.3592	361.7883	361.7888	490.9629	838.9029	875.6487	889.1978	889.1981	903.9981	974.2712	1009.8725	1023.4626	1044.5683	1044.5687	1151.8065	1151.807	1159.2912	1159.9097	1226.0462	1226.0465	1249.8452	1309.9849	1309.985	1383.6404	1394.1231	1508.6986	1508.6989	1528.1772	1538.0614	2993.2577	2993.2579	3003.053	3008.5713	3037.777	3041.7882	3041.7889	3045.4265
C1OCC11COC1	C1OCC21COC2	
InChI=1S/C5H8O2/c1-5(2-6-1)3-7-4-5/h1-4H2	InChI=1S/C5H8O2/c1-5(2-6-1)3-7-4-5/h1-4H2
