11
gdb 1029	8.35462	2.06683	1.65693	5.8712	57.43	-0.2477	-0.0592	0.1885	681.5642	0.080405	-339.479764	-339.47419	-339.473246	-339.509221	19.949	
O	-0.1354366067	 0.0097990156	-0.0006536341	-0.249708
C	 0.0188084303	 1.2057989897	 0.0070856565	 0.094044
C	 1.3063377565	 1.901583318	-0.0017968343	 0.257256
N	 2.5243308386	 1.3815840314	-0.0190677969	-0.2654
C	 3.3775059757	 2.4401426127	-0.0205097807	-0.073118
C	 2.6789917744	 3.6322174831	-0.0039559047	-0.096439
N	 1.3640667205	 3.2752824042	 0.0081785028	-0.265576
H	-0.8529778579	 1.9044466298	 0.02192845	 0.055721
H	 4.4486425012	 2.3050144716	-0.0333660706	 0.122575
H	 2.9954020045	 4.6622830298	 0.0002301464	 0.144438
H	 0.576606273	 3.9036358142	 0.0218598657	 0.276207
146.5739	214.154	273.1518	496.1861	576.1335	649.2541	709.5386	770.3406	786.2724	881.7096	926.7443	995.867	1015.4483	1117.225	1132.0833	1198.3063	1260.9441	1393.0181	1431.3946	1460.9142	1472.3044	1563.827	1811.4962	2831.5357	3249.283	3279.1378	3650.7521
O=CC1=NC=CN1	O=Cc1ncc[nH]1	
InChI=1S/C4H4N2O/c7-3-4-5-1-2-6-4/h1-3H,(H,5,6)	InChI=1S/C4H4N2O/c7-3-4-5-1-2-6-4/h1-3H,(H,5,6)
