18
gdb 3011	4.06843	2.01535	1.60532	2.567	64.44	-0.2445	0.0836	0.3281	831.1898	0.159682	-326.943546	-326.93575	-326.934806	-326.975273	28.824	
C	 0.030780504	 1.4484876228	-0.2356179281	-0.383193
C	 0.1212588338	-0.0478061394	 0.0643020966	 0.032382
C	 0.7947367153	-0.3232028278	 1.4166788116	-0.05105
O	 0.0491718303	 0.2200997805	 2.4875968391	-0.423706
N	-1.2298854675	-0.6186365467	 0.147196742	-0.07455
C	-1.9172822929	-0.9017153999	-1.1051930217	-0.22335
C	-1.3899938646	-2.011023934	-0.2635530626	-0.223741
H	 1.0322718747	 1.8738381853	-0.3519991303	 0.1138
H	-0.5264775057	 1.632894501	-1.1587425901	 0.110443
H	-0.4692616272	 1.9666312691	 0.5858167153	 0.134888
H	 0.7114931949	-0.5453101932	-0.727538791	 0.053169
H	 0.9293524517	-1.4115136064	 1.5351891579	 0.079937
H	 1.7882469827	 0.1372153447	 1.4440846868	 0.101457
H	-0.8703587694	-0.0087066334	 2.2948037775	 0.286587
H	-2.9803506301	-0.6796795078	-1.1280569997	 0.119767
H	-1.3879369556	-0.6906609488	-2.0329731472	 0.113623
H	-0.5099861547	-2.5376294362	-0.6293905154	 0.114027
H	-2.0613204698	-2.6131017497	 0.3417239394	 0.119508
103.301	130.8663	212.5796	221.2566	259.1829	334.4148	352.2595	491.6299	495.2441	633.456	734.6816	824.8628	875.22	906.4166	943.5978	980.051	1009.4007	1035.41	1080.9108	1114.5436	1121.1192	1132.8848	1152.3001	1171.2212	1198.749	1246.4251	1314.3387	1331.0548	1363.5859	1383.9819	1412.2446	1443.1389	1489.7535	1492.8587	1498.5058	1511.3166	1520.8157	2925.1038	2964.8106	3045.3534	3069.4707	3095.9172	3100.3678	3111.9362	3133.3419	3178.4437	3192.8087	3751.2409
CC(CO)N1CC1	C[C@@H](CO)N1CC1	
InChI=1S/C5H11NO/c1-5(4-7)6-2-3-6/h5,7H,2-4H2,1H3	InChI=1S/C5H11NO/c1-5(4-7)6-2-3-6/h5,7H,2-4H2,1H3/t5-/m0/s1
