17
gdb 1472	7.11673	1.27259	1.15793	1.7323	66.44	-0.255	0.0489	0.3039	1037.5	0.145446	-309.688194	-309.679442	-309.678498	-309.721182	31.246	
C	-0.1077852999	 1.5523403307	-0.0290526753	-0.38525
C	 0.0173239847	 0.0276346722	-0.0006150668	-0.182852
C	 0.7548396728	-0.4881138719	 1.2422911367	 0.14516
O	 0.1299449323	-0.0630953042	 2.4439964728	-0.419372
C	 0.916841031	-2.0248612766	 1.1986382958	-0.390063
C	 1.6638717573	-2.5665682568	 2.3256710459	 0.312037
C	 2.2909313572	-3.0088003781	 3.2503276571	-0.436954
H	 0.8785296907	 2.0261402463	-0.0816387817	 0.116509
H	-0.6859793348	 1.8861830351	-0.895636973	 0.110184
H	-0.6000517028	 1.9135670998	 0.8773592873	 0.129993
H	-0.9821986046	-0.4314045167	-0.0297489638	 0.085431
H	 0.5412767306	-0.3259254474	-0.8976768457	 0.096757
H	 1.7542903753	-0.0384140066	 1.2810988647	 0.099398
H	-0.7381614444	-0.4798285193	 2.4918226281	 0.277745
H	-0.082738517	-2.4827073033	 1.1598543955	 0.117297
H	 1.4112359314	-2.3032424281	 0.259058748	 0.130485
H	 2.8411156001	-3.3970253053	 4.0710319344	 0.193496
69.3786	108.5315	127.1904	221.1744	251.7607	274.2943	341.3168	347.8226	405.9422	458.6101	567.1493	617.4076	635.7176	780.2622	853.9514	906.0008	950.1372	996.0347	1029.3618	1072.9428	1111.7226	1140.9103	1194.2803	1266.3585	1287.6022	1350.7277	1359.7926	1383.6449	1407.332	1424.1909	1462.6768	1482.3188	1495.8183	1509.195	2241.7059	2997.38	3002.0183	3038.3861	3040.5763	3042.3499	3060.1977	3104.0692	3124.9514	3508.2798	3791.9288
CCC(O)CC#C	CC[C@@H](O)CC#C	
InChI=1S/C6H10O/c1-3-5-6(7)4-2/h1,6-7H,4-5H2,2H3	InChI=1S/C6H10O/c1-3-5-6(7)4-2/h1,6-7H,4-5H2,2H3/t6-/m1/s1
