15
gdb 3510	6.32878	1.82903	1.78032	3.053	57.17	-0.2351	0.0668	0.3019	743.3182	0.125082	-345.56612	-345.559682	-345.558738	-345.596733	24.006	
O	-0.0928788613	 1.4758707834	-0.223709057	-0.417827
C	 0.0779197489	 0.1000399548	 0.0939378341	-0.13447
C	-1.2921010068	-0.5416145762	 0.0168386794	 0.064564
C	-2.0116014376	-0.8470603289	-1.3271946245	 0.05163
C	-1.0610510967	-2.0370917227	-1.5998888157	-0.23095
C	-1.5192799499	-2.073288979	-0.1212236672	 0.022327
O	-2.8959175667	-1.7796465653	-0.5829213519	-0.310817
H	 0.7535027984	 1.9180781385	-0.1100182265	 0.288773
H	 0.792880925	-0.3775177505	-0.5911129152	 0.087442
H	 0.4728174133	-0.0281578781	 1.1149902822	 0.090292
H	-1.9734297616	-0.08941016	 0.7413565761	 0.091835
H	-2.4827922889	-0.1581947413	-2.0274347232	 0.098913
H	-1.4881657924	-2.8229319644	-2.2234267611	 0.109862
H	-0.0124887972	-1.8413489528	-1.8314831739	 0.096645
H	-1.3987824465	-2.8605625273	 0.6242311642	 0.091781
71.3375	185.0952	254.1037	328.9649	423.0154	546.5497	610.593	726.6878	796.1986	838.6222	878.8483	909.6899	928.2903	1007.5832	1013.0617	1058.536	1082.8974	1091.1299	1122.9055	1156.0688	1170.8876	1201.7827	1207.7245	1248.0744	1260.4552	1270.3227	1288.1404	1380.9321	1466.9215	1490.8625	1525.213	2969.3868	3007.8867	3075.4723	3093.8641	3109.1256	3128.0752	3151.0288	3828.4511
OCC1C2CC1O2	OC[C@H]1[C@H]2C[C@@H]1O2	
InChI=1S/C5H8O2/c6-2-3-4-1-5(3)7-4/h3-6H,1-2H2	InChI=1S/C5H8O2/c6-2-3-4-1-5(3)7-4/h3-6H,1-2H2/t3-,4+,5-
