14
gdb 1449	4.45742	2.07142	1.42693	3.1627	57.59	-0.243	-0.0007	0.2423	817.129	0.114527	-357.944802	-357.937131	-357.936187	-357.977356	26.071	
C	-0.3995902038	 1.3153307254	-0.5392349281	-0.331111
N	-1.0138862327	 0.012127363	-0.3955771244	-0.335775
C	-1.1099549194	-0.5917448342	 0.8079610146	 0.483336
O	-0.7189996117	-0.1547268084	 1.8754990339	-0.411853
N	-1.7376125794	-1.8669633625	 0.7878916502	-0.345283
C	-2.2637107507	-2.5903722726	-0.2497343966	 0.123488
N	-2.2716973528	-2.1953718676	-1.4647449477	-0.479444
H	 0.469654834	 1.2714981504	-1.2052766198	 0.124742
H	-1.1099407589	 2.0446505162	-0.9449378434	 0.124743
H	-0.0743284621	 1.6477341732	 0.4469390142	 0.166
H	-1.3919039298	-0.4891984121	-1.1958517329	 0.276946
H	-1.7796460685	-2.2658954231	 1.7121932769	 0.263848
H	-2.6749903388	-3.5462777575	 0.092292216	 0.107862
H	-2.7090348054	-2.8841539503	-2.0690107128	 0.232499
48.9469	106.6132	146.4363	212.4449	246.7425	327.8137	436.0689	580.129	585.2443	686.4683	768.6283	797.2953	800.4172	878.726	1046.4411	1104.7547	1151.882	1156.0171	1185.4956	1247.0633	1289.5541	1413.0279	1441.8596	1499.6826	1499.922	1504.0846	1614.7154	1722.5587	1812.2868	3026.0918	3064.4082	3075.2854	3153.5502	3451.3096	3538.9073	3650.5843
CNC(=O)NC=N	CNC(=O)NC=N	
InChI=1S/C3H7N3O/c1-5-3(7)6-2-4/h2H,1H3,(H3,4,5,6,7)	InChI=1S/C3H7N3O/c1-5-3(7)6-2-4/h2H,1H3,(H3,4,5,6,7)
