16
gdb 468	6.72379	3.02517	2.29024	1.7082	56.14	-0.2381	0.0839	0.322	594.9572	0.144241	-271.642927	-271.63658	-271.635636	-271.673114	22.656	
C	-0.1137173863	 1.5388959291	 0.0019097309	-0.411344
C	 0.0821886716	 0.0255682975	 0.0085171188	 0.025904
C	 0.9019732669	-0.5394146224	-1.1642131488	-0.231056
C	 1.3570981006	-1.898114457	-0.6186268585	-0.064478
O	 1.4210023092	-1.7674954294	 0.8038996825	-0.26285
C	 0.8924520177	-0.5064552117	 1.1985091346	-0.060467
H	 0.851332709	 2.0585510185	-0.0114110835	 0.116267
H	-0.6798616062	 1.8625968832	-0.8772837029	 0.117069
H	-0.6614105131	 1.8745966394	 0.8890484886	 0.116766
H	-0.8993968198	-0.466676453	 0.0145421266	 0.07845
H	 0.3315452768	-0.6248555505	-2.0928417113	 0.100291
H	 1.7653900839	 0.1083623078	-1.3587796785	 0.10149
H	 0.6391878569	-2.6909622961	-0.8749085052	 0.092857
H	 2.3402092459	-2.2028324012	-0.9964073966	 0.09878
H	 1.7117436	 0.1900807545	 1.4449685935	 0.082177
H	 0.289291647	-0.6472756187	 2.1025695398	 0.100145
64.1656	169.1793	226.7722	298.4127	422.4174	551.8535	678.1759	823.061	872.7691	911.5152	937.3271	956.4028	977.2655	1002.5705	1079.1618	1126.5098	1158.2141	1181.0882	1193.8768	1236.1414	1264.4245	1306.2666	1333.9383	1356.5633	1380.4812	1410.9253	1416.957	1491.6352	1496.2935	1500.841	1522.3335	1535.6657	2958.7214	2994.4885	3015.5717	3027.4076	3033.7451	3051.3809	3056.1645	3093.4072	3099.0628	3101.5045
CC1CCOC1	C[C@H]1CCOC1	
InChI=1S/C5H10O/c1-5-2-3-6-4-5/h5H,2-4H2,1H3	InChI=1S/C5H10O/c1-5-2-3-6-4-5/h5H,2-4H2,1H3/t5-/m0/s1
