16
gdb 4185	5.04729	1.45704	1.28593	1.1582	68.49	-0.223	-0.0029	0.2201	953.7358	0.130891	-379.826062	-379.818892	-379.817948	-379.857794	26.982	
O	-0.0283547209	 1.3667791383	 0.3261749635	-0.39118
N	 0.0994003833	-0.0335803701	 0.3375467918	-0.232124
C	-0.9903133405	-0.58789571	 0.0143103059	 0.409629
C	-2.4065503543	-0.1724230569	-0.3298731878	-0.279627
N	-2.8039838031	-1.6185068242	-0.4212511209	-0.129806
C	-2.637600686	-2.1687003294	-1.8092479707	-0.163277
C	-1.2194731654	-2.7106073947	-1.4882697851	-0.248538
C	-1.3710979023	-2.0434779213	-0.0978374481	-0.074413
H	 0.848573103	 1.6542109937	 0.6024522545	 0.30891
H	-2.9280339363	 0.357299452	 0.4748844192	 0.133145
H	-2.5296613087	 0.402217033	-1.2555480396	 0.123032
H	-3.3858585301	-2.9332291108	-2.035587868	 0.111056
H	-2.682770382	-1.4030513352	-2.5918350643	 0.103373
H	-1.1595847012	-3.7993267461	-1.4362828341	 0.114929
H	-0.3970904425	-2.3423474747	-2.1039199662	 0.117901
H	-1.2013569331	-2.6675444136	 0.7834605497	 0.096993
67.5252	144.6881	200.1074	321.7058	385.012	413.4618	475.6024	534.3906	681.225	742.2198	765.5292	810.6381	892.7482	914.8621	947.74	968.6381	978.6364	997.1185	1053.7886	1082.4088	1152.0434	1180.9236	1187.4463	1193.6975	1222.1287	1257.894	1269.5665	1307.8451	1318.3904	1409.8631	1469.7168	1482.7394	1512.3339	1788.6304	3029.2801	3036.9882	3071.045	3073.3462	3079.0781	3085.3004	3131.793	3816.2659
ON=C1CN2CCC12	ON=C1CN2CC[C@@H]12	
InChI=1S/C5H8N2O/c8-6-4-3-7-2-1-5(4)7/h5,8H,1-3H2	InChI=1S/C5H8N2O/c8-6-4-3-7-2-1-5(4)7/h5,8H,1-3H2/t5-/m0/s1
