13
gdb 3488	5.03366	3.65976	3.17342	0.28	51.68	-0.2448	0.068	0.3127	497.444	0.103936	-344.393241	-344.388768	-344.387823	-344.421219	18.624	
C	 0.0186587635	 1.5327586883	 0.0331084563	-0.20713
C	 1.5531846949	 1.6411427117	-0.0298590901	 0.031321
O	 1.9390387166	 1.0118636945	 1.2294033186	-0.29038
C	 1.5241415583	-0.208764273	 0.6210597251	 0.062575
C	 0.0672099932	-0.0052409422	-0.018695878	 0.031321
O	 0.6291268125	-0.2318547645	-1.3466685772	-0.29038
C	 1.8475367009	 0.2631506035	-0.7965758025	 0.062576
H	-0.3620148381	 1.956802073	 0.9639347885	 0.113548
H	-0.5135697844	 1.9331205331	-0.8315336971	 0.113548
H	 2.0483374198	 2.5898774414	-0.2236480776	 0.08886
H	 1.8118730322	-1.1299045904	 1.1234380426	 0.097641
H	-0.8097185324	-0.6092091656	 0.2027694516	 0.08886
H	 2.749580663	 0.1098498004	-1.3852082601	 0.097641
423.3995	522.8613	527.3053	704.6088	748.4211	754.5664	846.2335	850.2802	852.5385	921.4242	940.4142	954.3266	974.0917	996.4983	1025.8845	1039.8097	1104.9472	1155.2272	1160.6147	1164.292	1215.8482	1228.6485	1266.1383	1293.1577	1312.7458	1348.0624	1458.1142	3081.5744	3142.0415	3145.7238	3148.682	3153.2188	3160.9676
C1C2OC3C1OC23	C1[C@H]2O[C@H]3[C@@H]1O[C@@H]23	
InChI=1S/C5H6O2/c1-2-4-5(6-2)3(1)7-4/h2-5H,1H2	InChI=1S/C5H6O2/c1-2-4-5(6-2)3(1)7-4/h2-5H,1H2/t2-,3-,4+,5+/m1/s1
