10
gdb 3920	8.78974	2.0418	1.65691	2.9175	50.39	-0.2632	-0.0653	0.198	666.0163	0.069124	-355.50199	-355.496567	-355.495623	-355.531479	18.637	
O	-0.0491743952	-0.0345095342	-0.0015650551	-0.250482
C	 0.0165867296	 1.1692522973	 0.0077996365	 0.087944
C	 1.2610511743	 1.9547572351	-0.0003060774	 0.214361
N	 2.4879494883	 1.4066446036	-0.0180904662	-0.236038
N	 3.2792460878	 2.4549902562	-0.0188081185	-0.04884
N	 2.7050823565	 3.6568110869	-0.0039397861	-0.190406
C	 1.4089024825	 3.3574815833	 0.0083633039	-0.104305
H	-0.898230673	 1.8024619806	 0.0210089332	 0.07986
H	 4.2833914677	 2.3556532348	-0.0305400562	 0.30514
H	 0.6590570015	 4.1326854664	 0.0223664759	 0.142766
127.7145	209.4215	282.5958	490.1387	609.7944	702.0052	734.9074	791.8458	896.3064	991.0214	1035.5645	1035.6652	1147.7575	1208.5514	1254.9274	1365.5898	1377.5845	1424.4668	1483.562	1551.859	1815.1591	2886.5005	3271.0604	3648.1049
O=CC1=NNN=C1	O=Cc1n[nH]nc1	
InChI=1S/C3H3N3O/c7-2-3-1-4-6-5-3/h1-2H,(H,4,5,6)	InChI=1S/C3H3N3O/c7-2-3-1-4-6-5-3/h1-2H,(H,4,5,6)
