17
gdb 1185	3.74016	1.89062	1.75707	2.8744	60.49	-0.2497	-0.0237	0.226	819.1713	0.144499	-346.869041	-346.860113	-346.859169	-346.902288	31.318	
C	-0.0074566428	 1.4170299661	 0.243033435	-0.417466
C	-0.0906781746	-0.0635711681	-0.1395915626	-0.181244
C	 0.7595650255	-0.4562265589	-1.3762752917	 0.265693
C	 0.2329523004	 0.1487670892	-2.6811557508	-0.435751
O	 2.1382291354	-0.1538188522	-1.1686252903	-0.472138
C	 0.7216843444	-1.9822819693	-1.4580808639	 0.15536
O	-0.2030298644	-2.6129051253	-1.8987089375	-0.263207
H	 1.0232422907	 1.7114729962	 0.4680295653	 0.115742
H	-0.3882940821	 2.0724449133	-0.5463108	 0.123343
H	-0.5999050085	 1.6097836154	 1.1420407101	 0.126414
H	 0.2503025644	-0.6674400565	 0.7104001885	 0.105589
H	-1.1287791083	-0.3524320814	-0.336539685	 0.116683
H	 0.1664450666	 1.2393460477	-2.6170299021	 0.110168
H	 0.9032687632	-0.1055370153	-3.5067796446	 0.12854
H	-0.7589574345	-0.2504584005	-2.9055911698	 0.14324
H	 2.2459785214	 0.8007829208	-1.2162095574	 0.285773
H	 1.6306721133	-2.4679195313	-1.0395661733	 0.09326
55.8087	94.1242	204.6991	217.4349	227.6664	251.2738	273.7285	319.2675	353.3737	429.5542	469.8417	630.8293	729.5513	783.4606	888.6526	940.7056	988.5798	1003.1089	1031.3792	1067.8516	1125.7397	1192.3155	1207.0395	1316.2703	1335.563	1381.4101	1393.9299	1405.0414	1410.8831	1474.7614	1489.2702	1496.7762	1505.2598	1508.8319	1837.9827	2898.8976	3030.4609	3037.0131	3044.5582	3075.8371	3105.3966	3110.0794	3115.717	3134.2566	3833.3865
CCC(C)(O)C=O	CC[C@@](C)(O)C=O	
InChI=1S/C5H10O2/c1-3-5(2,7)4-6/h4,7H,3H2,1-2H3	InChI=1S/C5H10O2/c1-3-5(2,7)4-6/h4,7H,3H2,1-2H3/t5-/m1/s1
