21
gdb 1299	6.41007	1.04951	0.95047	1.0262	72.19	-0.2495	0.0835	0.333	1286.4754	0.19265	-312.119017	-312.109494	-312.10855	-312.153443	33.135	
C	 0.0644693688	 1.3893806413	-0.0600008736	-0.2262
O	 0.0306315085	-0.015587745	-0.0686035159	-0.229583
C	-1.2760498715	-0.5354163144	 0.0646675336	-0.059727
C	-1.188270734	-2.0568987651	 0.0554574526	-0.18141
C	-2.546142654	-2.780012023	 0.050877826	 0.039385
C	-2.3440501082	-4.287969916	-0.1510562832	-0.387199
C	-3.3620818873	-2.512095459	 1.3246692867	-0.381369
H	 1.1085254107	 1.694488726	-0.1674870636	 0.124502
H	-0.5176358143	 1.8197032874	-0.8912846465	 0.100227
H	-0.3309400783	 1.8047449446	 0.8813188544	 0.100334
H	-1.7340047935	-0.1662473142	 0.9973725773	 0.084179
H	-1.9136245241	-0.1833284736	-0.7665190122	 0.0797
H	-0.6176748867	-2.3476137779	-0.8347226267	 0.101411
H	-0.597726859	-2.3820500702	 0.9220222105	 0.09897
H	-3.1245199503	-2.4026861946	-0.8054982027	 0.070742
H	-1.7680594959	-4.719298434	 0.6764733868	 0.112378
H	-3.3034617607	-4.8139181407	-0.1964018081	 0.107872
H	-1.8004875706	-4.4974152555	-1.0781991378	 0.110516
H	-3.59494148	-1.4507042913	 1.4513955961	 0.113089
H	-4.312006069	-3.0565968684	 1.3020116309	 0.109807
H	-2.8129656805	-2.8414672763	 2.2152087056	 0.112376
59.8001	79.3465	128.4128	140.4658	221.8103	234.1723	247.6132	303.3908	313.8072	410.961	438.6624	496.6537	794.7131	831.2231	927.2959	949.041	964.7864	985.6391	998.1079	1062.5696	1145.8297	1162.1825	1175.8439	1194.2333	1201.0705	1229.6442	1252.597	1306.9018	1313.5913	1364.6004	1376.049	1401.0011	1420.637	1429.5754	1480.5065	1482.9897	1485.1434	1488.7675	1496.8756	1504.7939	1505.7617	1510.6552	1533.1629	2939.0149	2963.9016	2976.4904	2993.1217	3004.4892	3021.9886	3023.8447	3029.8175	3067.3427	3087.2886	3093.9104	3098.5168	3103.3657	3109.663
COCCC(C)C	COCCC(C)C	
InChI=1S/C6H14O/c1-6(2)4-5-7-3/h6H,4-5H2,1-3H3	InChI=1S/C6H14O/c1-6(2)4-5-7-3/h6H,4-5H2,1-3H3
