16
gdb 1986	6.49401	1.59682	1.38628	3.4271	61.82	-0.2378	0.0338	0.2717	894.1601	0.135915	-325.797299	-325.789334	-325.78839	-325.830694	27.6	
C	 0.0331091599	 1.4484241103	-0.0843359559	-0.488525
C	 0.2659181601	-0.0551500798	-0.1474027073	 0.399596
O	 1.0173424901	-0.635438991	 0.6112008207	-0.361299
N	-0.4468572428	-0.7066322173	-1.1222815389	-0.320727
C	-0.4616962003	-2.1351937524	-1.2230991318	 0.06822
C	-0.6047063261	-2.7410203133	-2.5935059368	-0.298273
C	 0.70930221	-2.8333599695	-1.8583003516	-0.235106
H	-0.3307838777	 1.8687023938	-1.0261101037	 0.114701
H	-0.7012767862	 1.667166775	 0.698110844	 0.147654
H	 0.969077525	 1.9348930875	 0.1941526413	 0.152017
H	-1.1540626355	-0.1926071573	-1.623100681	 0.242253
H	-0.9423483036	-2.6487287072	-0.3938255119	 0.102949
H	-1.2152477621	-3.630995489	-2.6939711354	 0.11871
H	-0.659908221	-2.0611398099	-3.4372362748	 0.11247
H	 1.5245313485	-2.208726153	-2.2019245479	 0.124607
H	 1.0109108418	-3.7879085569	-1.443678169	 0.120755
43.8572	48.8405	112.7655	163.9253	345.5063	374.1393	444.535	458.8796	619.545	632.9433	765.5387	824.3067	850.4583	905.9999	968.6295	1020.8466	1035.8961	1050.4717	1063.1437	1077.3258	1124.7023	1192.7173	1198.9684	1240.3748	1280.343	1390.3827	1401.2743	1461.8645	1468.1835	1486.0909	1498.683	1514.7791	1791.8053	3044.6994	3111.4674	3127.8481	3134.997	3146.6722	3150.5754	3218.406	3241.1188	3626.2543
CC(=O)NC1CC1	CC(=O)NC1CC1	
InChI=1S/C5H9NO/c1-4(7)6-5-2-3-5/h5H,2-3H2,1H3,(H,6,7)	InChI=1S/C5H9NO/c1-4(7)6-5-2-3-5/h5H,2-3H2,1H3,(H,6,7)
