21
gdb 1106	3.05647	2.20295	1.84239	1.4315	69.98	-0.259	0.068	0.327	848.8521	0.192044	-312.131841	-312.122522	-312.121578	-312.164423	35.279	
C	 0.1151694194	 1.5441248525	-0.018516929	-0.428849
C	-0.0211530746	 0.0214963785	 0.0587374565	 0.144276
O	 0.7133466395	-0.4809606218	 1.1765277457	-0.44179
C	-1.4791929215	-0.5295052996	 0.0390975899	 0.269277
C	-2.2147349876	-0.0295353227	-1.2177077749	-0.414898
C	-1.4027023177	-2.0676530901	-0.0049195783	-0.406241
C	-2.2547893517	-0.0999299829	 1.2979975991	-0.425843
H	 1.1749394073	 1.8116339084	 0.0147381531	 0.124053
H	-0.3100970914	 1.9492298101	-0.9402262433	 0.121228
H	-0.3819798197	 2.0379858682	 0.8247590859	 0.109194
H	 0.4910800712	-0.4105063845	-0.8110434031	 0.080947
H	 0.4363904269	 0.0132116837	 1.9550536446	 0.27746
H	-1.6381479946	-0.2422298356	-2.1255586083	 0.109111
H	-3.1825710924	-0.5322345231	-1.3182290485	 0.110328
H	-2.406683589	 1.047207632	-1.1847442114	 0.110555
H	-0.8199663191	-2.4506385281	 0.8358387904	 0.126935
H	-2.404462313	-2.5089781368	 0.0329665951	 0.100532
H	-0.9226022295	-2.4096720452	-0.9290266856	 0.104139
H	-2.3565660345	 0.9878357049	 1.3709666842	 0.10921
H	-3.2658621891	-0.520078929	 1.2838595525	 0.114377
H	-1.7684737089	-0.4627609888	 2.2098269653	 0.106
79.4382	205.4107	234.2664	244.0124	251.3359	275.7932	294.544	309.3378	350.6776	360.1441	379.9507	442.3871	484.9603	549.7322	707.6029	842.8361	924.1397	933.9703	939.5642	958.4258	1000.6024	1028.0131	1062.9419	1088.1565	1118.7245	1220.117	1245.3989	1275.5216	1301.8231	1362.6063	1393.5237	1397.1291	1403.9545	1419.3611	1430.7563	1478.6037	1486.2707	1491.9682	1494.4484	1499.0455	1510.4954	1511.0588	1522.4143	3019.779	3025.3199	3026.8171	3033.5412	3036.9348	3087.7953	3091.4703	3096.2504	3096.8501	3103.2469	3105.1265	3125.2674	3125.932	3811.7897
CC(O)C(C)(C)C	C[C@@H](O)C(C)(C)C	
InChI=1S/C6H14O/c1-5(7)6(2,3)4/h5,7H,1-4H3	InChI=1S/C6H14O/c1-5(7)6(2,3)4/h5,7H,1-4H3/t5-/m1/s1
