16
gdb 1039	6.59188	1.86801	1.60406	1.8514	67.23	-0.1938	0.0483	0.2422	804.5223	0.138636	-288.685117	-288.678228	-288.677284	-288.716282	25.594	
C	 0.0339166065	 1.5325783513	-0.2301949232	-0.364086
C	-0.0273850793	 0.0351775087	 0.1233082373	-0.299029
C	-1.414434702	-0.5259210082	 0.1548592512	 0.308774
C	-2.2012471082	-0.9442186712	 1.2065393492	-0.22373
C	-3.4537654056	-1.3690837591	 0.6792740052	-0.136268
C	-3.4005807132	-1.2000414188	-0.6830664407	-0.099205
N	-2.1630426778	-0.6877508901	-0.9896428926	-0.281846
H	 1.0678390607	 1.8924418843	-0.2348879142	 0.111211
H	-0.3910541829	 1.7273834327	-1.2207432751	 0.106959
H	-0.5340313069	 2.1246520131	 0.4934483972	 0.126017
H	 0.5942222467	-0.5278350921	-0.5872569952	 0.099712
H	 0.42196442	-0.1242649713	 1.1086181731	 0.11464
H	-1.9029546489	-0.9441997754	 2.2444401954	 0.084371
H	-4.2928224136	-1.7571956083	 1.2361101563	 0.088389
H	-4.12615624	-1.3996010211	-1.4551941356	 0.109966
H	-1.8430123954	-0.4733340744	-1.9179976882	 0.254129
50.871	153.4536	213.5526	332.297	383.9709	480.7035	627.641	631.2243	689.4798	712.9142	781.0976	794.2497	847.955	895.5352	940.6011	994.1978	1045.2558	1065.8668	1083.3506	1121.0804	1146.0904	1255.9574	1261.2166	1315.408	1355.8299	1407.6414	1438.6112	1457.5916	1482.4456	1496.5023	1500.8757	1508.7657	1617.5626	3006.7881	3033.3554	3073.4711	3101.8471	3113.6837	3237.058	3250.2895	3269.9062	3678.0185
CCC1=CC=CN1	CCc1ccc[nH]1	
InChI=1S/C6H9N/c1-2-6-4-3-5-7-6/h3-5,7H,2H2,1H3	InChI=1S/C6H9N/c1-2-6-4-3-5-7-6/h3-5,7H,2H2,1H3
