15
gdb 1902	3.66332	3.02423	2.27602	1.9264	57.01	-0.2549	0.0727	0.3275	637.2812	0.125251	-345.600119	-345.593712	-345.592768	-345.629875	25.239	
O	-0.1347089248	 1.4369017614	-0.091067875	-0.44922
C	-0.0300797371	 0.0375552106	 0.0021801225	 0.087818
C	-0.0481069646	-0.665971244	 1.3960788506	-0.107814
C	-1.5197166334	-0.1891914503	 1.5594017106	-0.289246
C	-1.3867328624	-0.7109107833	 0.0865299752	 0.388686
O	-2.3591833528	-0.8093356197	-0.8870574604	-0.47371
C	-0.5999726579	-1.9155588237	 0.6469066031	-0.261067
H	 0.7393929491	 1.8181288776	 0.0340172503	 0.286991
H	 0.6911465247	-0.3652286958	-0.7216699609	 0.063801
H	 0.734750904	-0.6529654823	 2.150844219	 0.076322
H	-2.1502575853	-0.7857813788	 2.2227677366	 0.09005
H	-1.673609419	 0.8815391869	 1.6893833213	 0.104838
H	-2.6146760724	 0.0850996315	-1.1400720653	 0.289384
H	 0.0780795182	-2.4263571949	-0.042784073	 0.092029
H	-1.1705711463	-2.6210594352	 1.2534344554	 0.101137
197.8197	254.919	288.2385	317.0211	389.2748	445.8576	533.5975	626.909	655.0294	755.4979	817.0952	890.436	928.7925	952.0693	964.8427	1013.9249	1037.0556	1073.6759	1116.2034	1127.7294	1150.5224	1165.7708	1192.4786	1208.6797	1234.4656	1285.9047	1312.1551	1380.8376	1434.0203	1488.6303	1539.969	3015.7193	3057.8297	3072.3762	3128.9532	3144.1939	3151.3077	3802.3708	3826.4405
OC1C2CC1(O)C2	O[C@H]1[C@H]2C[C@]1(O)C2	
InChI=1S/C5H8O2/c6-4-3-1-5(4,7)2-3/h3-4,6-7H,1-2H2	InChI=1S/C5H8O2/c6-4-3-1-5(4,7)2-3/h3-4,6-7H,1-2H2/t3-,4-,5-/m0/s1
