13
gdb 4802	7.00899	1.36772	1.15278	2.0848	56.34	-0.2052	0.0294	0.2345	968.9888	0.095594	-435.757725	-435.750446	-435.749502	-435.789437	26.022	
C	-0.0876301097	 1.3592318624	-0.0233745699	-0.245164
O	-0.0605057504	-0.0697148113	 0.0506857165	-0.250537
C	-1.2257759705	-0.6971886864	 0.0500244744	 0.512819
N	-1.3825734199	-1.9833066353	 0.1115186308	-0.445279
C	-2.7588500444	-2.1335776459	 0.0804723458	 0.339263
O	-3.3185429204	-3.3546467793	 0.1272895838	-0.428107
C	-3.3743848083	-0.9314850869	 0.0015373537	-0.171775
O	-2.3528742929	 0.0250124121	-0.0187156783	-0.195771
H	 0.9565543634	 1.6699376111	-0.0099040503	 0.147254
H	-0.5677603133	 1.6937438437	-0.9474915323	 0.142999
H	-0.6179126054	 1.7850872389	 0.833283472	 0.143
H	-2.5917242472	-3.9871326511	 0.1801729083	 0.307867
H	-4.384063021	-0.5727631121	-0.0452793844	 0.143429
79.0786	155.7657	226.139	243.0883	353.3373	379.1509	384.6121	557.5512	592.5148	656.352	688.8743	753.9225	753.9474	972.6142	1020.4186	1090.5687	1098.4606	1179.0811	1187.4124	1213.905	1278.1519	1380.2402	1412.5833	1486.4627	1488.3299	1499.983	1662.8873	1710.411	3043.4286	3115.7128	3161.6661	3327.4863	3806.9917
COC1=NC(O)=CO1	COc1nc(O)co1	
InChI=1S/C4H5NO3/c1-7-4-5-3(6)2-8-4/h2,6H,1H3	InChI=1S/C4H5NO3/c1-7-4-5-3(6)2-8-4/h2,6H,1H3
