16
gdb 4932	6.83292	1.24666	1.06848	0.4782	68.49	-0.2004	0.0288	0.2292	1097.1717	0.129952	-383.76212	-383.754183	-383.753239	-383.79449	28.647	
C	 0.0058484472	 1.4111988194	-0.0118879251	-0.248021
O	 0.1501206967	 0.0059263812	-0.1022707747	-0.256011
C	 0.6660239634	-0.5863442979	 0.9980892434	 0.352474
C	 1.071640808	-0.0456605619	 2.1829714474	-0.182233
O	 1.5275442245	-1.0469583256	 3.0033066825	-0.189359
C	 1.4064960292	-2.2205634715	 2.3285330691	 0.401543
C	 1.8471303673	-3.4495210088	 3.0398276669	-0.487977
C	 0.8834154957	-2.0005023019	 1.0923694634	-0.415973
H	 0.9770750144	 1.8989547334	 0.1485447364	 0.121195
H	-0.4179317846	 1.7471765387	-0.9593680619	 0.134175
H	-0.6689726906	 1.6873436379	 0.8098520682	 0.121219
H	 1.1067740361	 0.9503779406	 2.585329157	 0.126343
H	 2.9072138721	-3.3961217102	 3.3127308373	 0.138161
H	 1.2791727533	-3.6022172366	 3.9645547388	 0.13818
H	 1.7015141218	-4.3225618544	 2.4001512402	 0.135182
H	 0.6720137255	-2.7341062722	 0.3310932409	 0.111101
92.418	111.0789	201.9279	206.3533	229.0945	325.8626	377.694	469.4217	619.4976	630.3412	646.9629	684.3681	721.0429	796.1136	942.5104	988.8763	1018.2557	1063.4004	1072.711	1157.5542	1182.5036	1182.6183	1215.6879	1250.5959	1327.2304	1414.4987	1422.6398	1472.7724	1475.9843	1483.6232	1490.3384	1508.7208	1598.6877	1668.2048	2997.4226	3031.2302	3052.8408	3081.6482	3130.8391	3136.6615	3264.1798	3298.1067
COC1=COC(C)=C1	COc1coc(C)c1	
InChI=1S/C6H8O2/c1-5-3-6(7-2)4-8-5/h3-4H,1-2H3	InChI=1S/C6H8O2/c1-5-3-6(7-2)4-8-5/h3-4H,1-2H3
