12
gdb 3948	7.7005	1.9315	1.58179	2.1679	51.84	-0.2582	-0.0147	0.2435	723.2681	0.090919	-360.499243	-360.493094	-360.49215	-360.529707	21.682	
O	 0.2747461209	 1.1220603098	-0.6261188879	-0.40077
C	-0.0082803867	 0.052025858	 0.2517701707	-0.171715
C	-1.3937200528	-0.4845687059	 0.0543767118	 0.38354
C	-2.2785156715	-0.3912578093	-0.9752145207	-0.323018
C	-3.3998655758	-1.1267042965	-0.5063392858	 0.034167
N	-3.2117303912	-1.6165541347	 0.6935143507	-0.138523
O	-1.9281981987	-1.201852584	 1.0563062991	-0.207129
H	-0.3285198157	 1.8430323098	-0.4161386875	 0.29112
H	 0.7300825662	-0.7262232111	 0.0265539045	 0.145784
H	 0.1259355617	 0.3211957436	 1.31004656	 0.123418
H	-2.1419434379	 0.1095951925	-1.918007305	 0.129073
H	-4.3407688586	-1.3156622621	-1.0041401799	 0.134054
69.0754	185.4291	249.2225	345.4625	440.7847	642.5775	648.8896	716.801	820.7642	913.0739	920.8029	940.5723	985.8637	1017.7782	1045.2506	1093.819	1200.6366	1209.1488	1246.6734	1347.6238	1399.4106	1420.7827	1492.4633	1514.4926	1632.1351	3000.76	3062.5435	3243.6215	3291.3888	3811.0035
OCC1=CC=NO1	OCc1ccno1	
InChI=1S/C4H5NO2/c6-3-4-1-2-5-7-4/h1-2,6H,3H2	InChI=1S/C4H5NO2/c6-3-4-1-2-5-7-4/h1-2,6H,3H2
