15
gdb 1965	6.91956	1.63045	1.44116	4.1185	57.54	-0.2734	0.0127	0.2862	849.9582	0.12481	-345.692143	-345.685151	-345.684206	-345.723385	25.061	
C	-0.0012357933	 1.6302642768	-0.0375222775	-0.384614
C	 0.2736600965	 0.1352148827	 0.1477468482	-0.192246
C	 0.6663595251	-0.553781363	-1.1430046669	 0.153516
C	 0.6634209707	-2.0932974139	-1.1837408641	-0.440757
C	-0.4665495224	-1.9040026478	-2.1965571256	 0.449933
O	-1.1806011885	-2.5820264938	-2.8614101519	-0.315414
O	-0.4304368064	-0.5344099714	-2.1333521475	-0.251081
H	 0.8894199081	 2.1551278595	-0.3998141177	 0.118181
H	-0.8024860036	 1.7863049215	-0.7651606406	 0.143002
H	-0.3016109895	 2.0934187705	 0.9064024539	 0.119763
H	 1.0851981606	-0.0180900972	 0.8709612246	 0.107794
H	-0.6130553735	-0.3650143555	 0.5565100667	 0.108502
H	 1.5502059239	-0.091333696	-1.593050089	 0.097455
H	 1.5529807621	-2.5771137877	-1.5898210881	 0.143948
H	 0.3607798302	-2.5940312445	-0.2618181245	 0.142019
90.2422	120.5867	203.4557	242.0963	385.7477	430.9234	520.6791	530.4377	705.3562	800.2562	814.6631	891.9181	945.2868	961.7863	1011.899	1071.5441	1086.6583	1106.9248	1136.236	1200.9594	1224.3426	1282.9622	1309.2028	1351.2257	1410.18	1414.0961	1456.8685	1474.8896	1498.573	1508.0106	1939.8135	3024.4282	3039.7556	3055.4973	3074.0453	3087.2726	3108.2707	3123.0474	3145.2041
CCC1CC(=O)O1	CC[C@H]1CC(=O)O1	
InChI=1S/C5H8O2/c1-2-4-3-5(6)7-4/h4H,2-3H2,1H3	InChI=1S/C5H8O2/c1-2-4-3-5(6)7-4/h4H,2-3H2,1H3/t4-/m0/s1
