11
gdb 749	9.28884	3.90083	2.79631	0.4905	47.91	-0.2587	-0.0011	0.2577	460.0451	0.087299	-281.476967	-281.471735	-281.470791	-281.506215	17.47	
C	-0.0075690904	 1.4356989206	 0.0098161958	-0.309791
N	-0.028911112	-0.0128454978	 0.0021173485	 0.165827
N	-0.0089116116	-0.7112751839	-1.1269952594	-0.230037
C	 0.0331449917	-1.9787264769	-0.7090963741	-0.057619
C	 0.041242017	-1.9863098676	 0.6912735459	-0.057703
N	 0.0041161428	-0.7234567638	 1.1233206168	-0.229874
H	 1.0216702975	 1.8076694424	 0.0015925135	 0.150177
H	-0.5283106022	 1.7919875075	-0.8787608364	 0.160146
H	-0.5104381241	 1.7816955256	 0.9125979655	 0.160246
H	 0.0468032464	-2.7951478631	-1.4130636974	 0.124312
H	 0.062982225	-2.8102969028	 1.3861609213	 0.124316
46.3565	212.7972	380.3589	681.953	683.2905	724.729	846.4372	895.5404	982.242	996.6241	1053.811	1099.6019	1148.2325	1212.8986	1296.9488	1342.1827	1414.9417	1444.4902	1448.9277	1485.1906	1492.8771	1514.471	3055.1776	3135.9045	3176.4632	3264.8648	3282.4492
CN1N=CC=N1	Cn1nccn1	
InChI=1S/C3H5N3/c1-6-4-2-3-5-6/h2-3H,1H3	InChI=1S/C3H5N3/c1-6-4-2-3-5-6/h2-3H,1H3
