15
gdb 3332	4.08064	3.38703	2.16466	1.7753	61.3	-0.2427	0.027	0.2697	629.5675	0.127096	-308.516378	-308.510652	-308.509708	-308.545741	22.342	
C	 0.099693989	 1.4128694482	-0.374404149	-0.28645
C	 1.2409711251	 2.1585399481	 0.2615375559	-0.045494
C	 2.1559229617	 1.6032117565	 1.0521715054	-0.045496
C	 2.1854940474	 0.1468963183	 1.4279797497	-0.286451
C	 0.9471194934	-0.6138785516	 1.0116718661	 0.058256
O	-0.296058652	-0.1444565419	 1.5424104949	-0.258685
C	-0.0641483015	-0.0000920197	 0.1378071488	 0.058253
H	-0.8410918495	 1.960970906	-0.2234971849	 0.119102
H	 0.2412632597	 1.3734160584	-1.4648502767	 0.111794
H	 1.3016120169	 3.2206532586	 0.0377348891	 0.086594
H	 2.9516587431	 2.2191600542	 1.4635854824	 0.086594
H	 3.0615513459	-0.338356833	 0.9722108901	 0.111794
H	 2.3255781636	 0.0389677464	 2.5128728629	 0.119101
H	 1.0436993071	-1.7004577864	 1.0106606932	 0.085544
H	-0.68167214	-0.6532457921	-0.4802845179	 0.085544
128.268	321.1059	361.0447	394.672	532.9685	579.4938	677.1455	775.0962	800.0304	887.6719	904.6996	922.0856	953.6434	970.3426	1009.9911	1041.8944	1052.4137	1085.3579	1150.3061	1204.6191	1232.0828	1246.6313	1295.8621	1360.3284	1377.5712	1378.3992	1429.2699	1463.2499	1465.4518	1484.7684	1738.1582	3000.2086	3000.3627	3025.2529	3025.4043	3092.1324	3105.1598	3146.2238	3169.3751
C1C=CCC2OC12	C1C=CC[C@H]2O[C@@H]12	
InChI=1S/C6H8O/c1-2-4-6-5(3-1)7-6/h1-2,5-6H,3-4H2	InChI=1S/C6H8O/c1-2-4-6-5(3-1)7-6/h1-2,5-6H,3-4H2/t5-,6+
