12
gdb 3548	5.85186	3.03253	2.62661	4.2036	52.98	-0.25	0.0006	0.2506	536.8954	0.091459	-323.329385	-323.324398	-323.323454	-323.357973	19.383	
O	-0.0307251334	 0.0676672894	 0.055305829	-0.313153
C	-0.0868645946	 1.2552492408	 0.0619355565	 0.445246
C	-1.1657342197	 2.3196576115	-0.0855135687	-0.206697
C	-0.9526368461	 3.1442838285	 1.2197317498	-0.243554
C	 0.4357715936	 3.4622877986	 0.6523189547	-0.030056
C	 0.0228053394	 3.1460847028	-0.7189609913	-0.043448
N	 1.008757558	 2.2252907295	-0.0037960416	-0.201906
H	-2.1504398404	 2.1069470676	-0.4906732974	 0.104811
H	-1.575457015	 4.0415042741	 1.242348263	 0.122013
H	-1.0282366291	 2.6075728351	 2.1705169312	 0.119473
H	 1.1723962111	 4.1690343791	 1.0105975651	 0.118581
H	 0.2286480562	 3.535372803	-1.7043091702	 0.128689
167.376	399.7993	478.0964	611.7215	692.4198	747.7683	773.0947	842.5943	858.951	875.1091	906.9745	958.674	976.2261	1014.3819	1037.796	1084.8061	1113.7116	1146.6645	1177.1359	1209.4451	1234.1397	1280.92	1337.2107	1499.6696	1924.8943	3055.0264	3117.604	3171.4241	3208.5215	3243.9233
O=C1C2CC3C2N13	O=C1[C@H]2C[C@@H]3[C@H]2N13	
InChI=1S/C5H5NO/c7-5-2-1-3-4(2)6(3)5/h2-4H,1H2	InChI=1S/C5H5NO/c7-5-2-1-3-4(2)6(3)5/h2-4H,1H2/t2-,3+,4-,6?/m0/s1
