15
gdb 1490	6.7371	1.4175	1.29984	2.7291	62.54	-0.2441	-0.06	0.1841	931.9014	0.124034	-341.85365	-341.845634	-341.84469	-341.886024	28.114	
C	-0.085617768	 1.599970926	-0.0548540767	-0.369376
C	 0.0990999431	 0.0763515032	 0.0168659438	-0.155769
N	-1.1712708765	-0.6071123249	 0.1979882002	-0.262345
C	-1.8352992136	-0.9648429407	-0.8371046791	 0.268066
N	-1.534970173	-0.8554311034	-2.1686369371	-0.556463
C	-3.1411237621	-1.6526152789	-0.5688508304	 0.143672
O	-3.8949745792	-2.0034229637	-1.445116227	-0.270741
H	 0.8842860507	 2.1026371658	-0.1194811094	 0.117561
H	-0.680270109	 1.8911293692	-0.9272729397	 0.110987
H	-0.6055561929	 1.9601159879	 0.8369721895	 0.134947
H	 0.6424130608	-0.2778921031	-0.8745854473	 0.086863
H	 0.728405003	-0.1619682723	 0.8812066588	 0.111398
H	-0.87451671	-0.1683388999	-2.4859129673	 0.262819
H	-2.2909498698	-1.0904568818	-2.7951832982	 0.269869
H	-3.3427843232	-1.7965264336	 0.5086012602	 0.108513
68.7401	95.7061	204.1034	222.7467	272.7794	313.7049	354.7518	416.8266	506.126	529.4608	646.9211	679.2649	816.507	882.5723	925.0872	1026.5947	1031.9392	1088.4462	1138.1464	1194.4521	1297.93	1358.6504	1361.8087	1375.4048	1405.4466	1489.806	1499.1185	1526.8936	1610.9845	1724.627	1805.7318	2967.9876	2978.7461	3036.8526	3055.2117	3106.1037	3121.3625	3585.3496	3721.8053
CCN=C(N)C=O	CCN=C(N)C=O	
InChI=1S/C4H8N2O/c1-2-6-4(5)3-7/h3H,2H2,1H3,(H2,5,6)	InChI=1S/C4H8N2O/c1-2-6-4(5)3-7/h3H,2H2,1H3,(H2,5,6)
