11
gdb 403	5.99149	3.23476	2.47902	3.8379	47.2	-0.3007	0.0031	0.3038	525.818	0.083704	-285.281032	-285.275044	-285.2741	-285.310299	20.903	
C	-0.0253668322	 1.5141427098	 0.0223385623	-0.463013
C	-0.0122318528	 0.0047464832	-0.0645636349	 0.264794
C	 0.7621430565	-0.7122595933	-1.0988873497	-0.200744
O	 1.2233401782	-0.6452637034	 0.2478245296	-0.242437
C	-1.1908123773	-0.6587510708	 0.4745246881	 0.255723
N	-2.1432851263	-1.1560340699	 0.8998481857	-0.325407
H	 0.8943962678	 1.9136617217	-0.4104262108	 0.140363
H	-0.8838215125	 1.9235655535	-0.5178301298	 0.146252
H	-0.0909240426	 1.8355323636	 1.0654439143	 0.152414
H	 0.4336900124	-1.6931122517	-1.435244359	 0.141335
H	 1.3250847288	-0.1225336127	-1.8205080957	 0.13072
182.2231	189.4863	239.5004	352.066	367.4793	570.4916	586.1274	666.4276	829.2023	897.1839	930.2207	1032.8576	1103.3092	1138.0978	1170.3211	1255.1225	1368.5834	1415.119	1478.4504	1492.9809	1521.0228	2359.7413	3050.524	3093.0031	3124.0964	3138.35	3189.7973
CC1(CO1)C#N	C[C@]1(CO1)C#N	
InChI=1S/C4H5NO/c1-4(2-5)3-6-4/h3H2,1H3	InChI=1S/C4H5NO/c1-4(2-5)3-6-4/h3H2,1H3/t4-/m1/s1
