17
gdb 1140	4.55793	2.06467	1.86807	0.459	60.22	-0.2499	0.0765	0.3264	750.1018	0.146823	-346.843297	-346.835676	-346.834732	-346.87426	29.349	
C	 0.4473225851	 1.3399324419	 0.0950424223	-0.455211
C	-0.0712630454	-0.088248596	-0.022762413	 0.432055
O	-1.4723384543	-0.1168392875	-0.2252634572	-0.47715
C	 0.7839910277	-0.9904261525	-0.9734753209	-0.27827
C	 1.4854547074	-1.5888831048	 0.2662022833	 0.120593
O	 2.7375464389	-0.9452673935	 0.4495395635	-0.432082
C	 0.3427369053	-1.0151051239	 1.1504305874	-0.288845
H	 1.5214575169	 1.3421111187	 0.2945810309	 0.138505
H	 0.2774592988	 1.8909943188	-0.8394543166	 0.100352
H	-0.068992053	 1.8666917971	 0.904403162	 0.11599
H	-1.6876305372	 0.5188015098	-0.9164657688	 0.272023
H	 0.148421901	-1.7227990069	-1.4760622089	 0.102915
H	 1.4409694272	-0.5023773383	-1.6973932888	 0.101225
H	 1.6046625885	-2.6794212375	 0.2806379602	 0.066435
H	 3.049067753	-1.1552546849	 1.3360773551	 0.281559
H	 0.63266996	-0.5410373982	 2.0928281917	 0.089621
H	-0.4393929099	-1.7547677222	 1.338732438	 0.110285
116.5865	247.1952	270.3061	282.9367	314.2338	344.3584	372.6973	400.7074	442.3927	458.511	653.8936	823.1137	835.7107	852.1805	905.7228	944.2872	955.9483	969.7132	1018.4477	1069.0273	1127.4309	1171.7536	1192.7056	1199.6492	1243.2795	1268.1923	1293.1824	1325.885	1379.506	1403.954	1414.1707	1450.8853	1475.2567	1493.8471	1503.7295	3014.5582	3017.4828	3053.5778	3067.0988	3086.5933	3117.7617	3128.5315	3131.0388	3800.1321	3809.5916
CC1(O)CC(O)C1	C[C@@]1(O)C[C@@H](O)C1	
InChI=1S/C5H10O2/c1-5(7)2-4(6)3-5/h4,6-7H,2-3H2,1H3	InChI=1S/C5H10O2/c1-5(7)2-4(6)3-5/h4,6-7H,2-3H2,1H3/t4-,5-
