15
gdb 2076	4.56213	2.52613	1.798	1.6996	57.21	-0.2422	-0.0179	0.2243	697.6287	0.126637	-345.680086	-345.673864	-345.67292	-345.710251	23.335	
O	 0.0026170212	-0.0670731156	-0.0204190827	-0.304473
C	-0.0138602482	 1.140964459	-0.0059440547	 0.381196
C	-1.2972837754	 1.9585609302	 0.0071176984	-0.299079
C	-1.2268223605	 3.0811536165	-1.0471783876	-0.086819
O	-0.0633556428	 3.8694800124	-0.8890133437	-0.235039
C	 1.1167614099	 3.1134973474	-1.0786011643	-0.086819
C	 1.2464058627	 1.9936645473	-0.0269900943	-0.299079
H	-2.1524438989	 1.2991323303	-0.1608134205	 0.120687
H	-1.4004022219	 2.4209502185	 0.997169166	 0.126601
H	-1.2558397274	 2.6422161923	-2.0583553651	 0.100033
H	-2.0792777415	 3.7584373538	-0.9498107281	 0.117734
H	 1.1307633955	 2.6751552493	-2.0903556036	 0.100033
H	 1.9525083628	 3.8140797955	-1.0038670801	 0.117734
H	 1.3632322539	 2.4590867227	 0.9601132699	 0.126601
H	 2.1146246005	 1.3580189304	-0.2180311296	 0.120687
104.1394	185.1826	334.0278	414.3776	446.9495	487.3055	509.3109	695.522	765.6919	780.5178	866.1937	913.3914	988.7745	994.0742	1020.4367	1106.0045	1130.0671	1178.6764	1233.2841	1237.5492	1248.5291	1303.2509	1325.6717	1345.3193	1389.1507	1418.2673	1449.8609	1460.8521	1497.8094	1511.5036	1822.7113	2969.0501	2973.8299	3031.9549	3037.5424	3091.988	3094.6075	3111.4059	3112.3666
O=C1CCOCC1	O=C1CCOCC1	
InChI=1S/C5H8O2/c6-5-1-3-7-4-2-5/h1-4H2	InChI=1S/C5H8O2/c6-5-1-3-7-4-2-5/h1-4H2
