13
gdb 3736	7.31494	2.07598	1.80229	2.9968	55.02	-0.2884	-0.022	0.2664	701.3926	0.103868	-336.808333	-336.802123	-336.801179	-336.839142	21.349	
C	-0.065510005	 1.5434796859	-0.0285888375	-0.382417
C	 0.0542413711	 0.0213670599	 0.0076120196	-0.135943
N	 0.6887862005	-0.5080106757	-1.1939298117	 0.155568
N	 0.113271116	-0.4928425092	-2.3898205517	-0.250002
C	 1.0638446011	-1.0362233327	-3.1408924347	 0.079788
N	 2.166763705	-1.3646601325	-2.4332647074	-0.208753
N	 1.913037813	-1.0204784252	-1.1937039048	-0.12392
H	 0.9214505941	 2.0095969537	-0.0915705582	 0.141108
H	-0.659451464	 1.8623149027	-0.8883274745	 0.150318
H	-0.5568726092	 1.8940503733	 0.8832637093	 0.130987
H	 0.6761867319	-0.3158386123	 0.8384565881	 0.15323
H	-0.9289222797	-0.4489239317	 0.0918707551	 0.14339
H	 0.9592189452	-1.199191286	-4.2011951019	 0.146646
49.5671	151.5138	221.1221	358.6547	411.7999	679.6644	717.8238	730.2261	798.9777	902.3821	981.9899	1029.9422	1049.0472	1076.5884	1110.7918	1163.9134	1226.1768	1261.9835	1319.9687	1360.5427	1388.8539	1396.3572	1414.2029	1480.3886	1489.558	1495.9493	1506.6826	3051.7876	3077.3371	3124.9087	3129.1632	3147.8643	3286.9127
CCN1N=CN=N1	CCn1ncnn1	
InChI=1S/C3H6N4/c1-2-7-5-3-4-6-7/h3H,2H2,1H3	InChI=1S/C3H6N4/c1-2-7-5-3-4-6-7/h3H,2H2,1H3
