17
gdb 1180	3.92442	1.92056	1.8126	1.4882	66.27	-0.2509	0.0464	0.2972	814.529	0.14436	-309.673807	-309.665	-309.664056	-309.706504	31.893	
C	-0.0667136429	 1.3980670114	 0.1031077887	-0.240092
O	 0.0135707636	-0.0058250825	-0.0157939237	-0.27253
C	 0.6733841453	-0.5327957301	-1.1761977753	 0.177469
C	-0.0580396168	-0.1333155808	-2.4745331368	-0.415699
C	 2.1563540512	-0.1102539546	-1.2263555156	-0.415791
C	 0.5975812542	-1.9923622972	-1.0146314524	 0.351207
C	 0.5569471813	-3.1889793035	-0.9203542727	-0.477063
H	 0.9194867171	 1.8788907073	 0.161788237	 0.107087
H	-0.6336442707	 1.864315417	-0.7144895757	 0.107061
H	-0.5967469663	 1.5902459418	 1.0393265794	 0.131087
H	 0.0376173283	 0.9390729548	-2.6665552643	 0.114606
H	 0.371089086	-0.6681379268	-3.3254526829	 0.128394
H	-1.1175294939	-0.3896417708	-2.4006019003	 0.133129
H	 2.6455040379	-0.3498827121	-0.279246954	 0.133128
H	 2.6706229813	-0.6447932668	-2.028875751	 0.128428
H	 2.2542916025	 0.9620079571	-1.4179047499	 0.114619
H	 0.5140853219	-4.2457879743	-0.8244904905	 0.194961
55.753	161.2271	176.6031	197.9122	265.6806	272.1607	314.3999	358.8518	388.8404	463.2267	543.4464	559.9076	623.3885	663.1143	703.3096	854.1203	916.6855	953.8676	1011.6105	1106.7286	1173.0649	1181.0561	1183.007	1213.6375	1278.1138	1386.2714	1405.7803	1475.1014	1477.1159	1478.8066	1498.3134	1501.656	1504.5058	1514.5738	2242.0417	2994.5295	3040.817	3050.4197	3050.8028	3111.5502	3118.9878	3124.9177	3133.0934	3135.172	3502.643
COC(C)(C)C#C	COC(C)(C)C#C	
InChI=1S/C6H10O/c1-5-6(2,3)7-4/h1H,2-4H3	InChI=1S/C6H10O/c1-5-6(2,3)7-4/h1H,2-4H3
