13
gdb 1652	5.36086	2.011	1.47937	1.4007	52.91	-0.2465	-0.0348	0.2117	788.6957	0.101296	-377.805829	-377.798194	-377.79725	-377.837816	26.354	
C	 0.0683386145	 1.3712571764	 0.0408717935	-0.240864
O	 0.1039048232	-0.0621441421	 0.0248644559	-0.202148
C	 0.6957415698	-0.6018816661	-1.0346574269	 0.470696
O	 1.1908272426	 0.0273701633	-1.9434997653	-0.384674
C	 0.689773919	-2.1229126945	-1.010702349	 0.220941
N	 1.456549665	-2.6221579366	-2.0309284376	-0.532236
N	 0.039974522	-2.7405627711	-0.1023064499	-0.492201
H	 1.0816011563	 1.7804968247	 0.0246124876	 0.143304
H	-0.4792139311	 1.7511485975	-0.8253663552	 0.142809
H	-0.4406157223	 1.640923854	 0.9655002272	 0.141753
H	 1.719389304	-1.9660212041	-2.7506333145	 0.272291
H	 1.3477570686	-3.5869326833	-2.2943454361	 0.25326
H	 0.1188848585	-3.7537523781	-0.2193564197	 0.207068
69.8974	123.4887	154.7932	214.4531	349.0221	356.4963	409.7301	487.8264	517.2111	541.4293	635.885	822.386	860.7879	891.5648	1020.1026	1100.9157	1134.2294	1178.071	1208.8372	1286.261	1428.112	1479.8322	1483.0575	1494.7638	1606.993	1727.4012	1794.0859	3053.1521	3127.7594	3166.5905	3439.896	3584.3365	3714.3469
COC(=O)C(N)=N	COC(=O)C(=N)N	
InChI=1S/C3H6N2O2/c1-7-3(6)2(4)5/h1H3,(H3,4,5)	InChI=1S/C3H6N2O2/c1-7-3(6)2(4)5/h1H3,(H3,4,5)
