11
gdb 732	9.1962	3.39821	2.5201	3.2522	47.4	-0.2549	-0.008	0.247	496.1172	0.08571	-285.288405	-285.283174	-285.28223	-285.317103	18.255	
C	-0.0209996319	 1.5252014661	 0.0202971145	-0.507319
C	 0.0011958137	 0.0293019056	 0.0005214027	 0.149896
C	-0.0625887908	-0.8191535646	-1.0597227985	-0.002562
O	-0.0131580367	-2.0996118536	-0.659812442	-0.162517
N	 0.0879901634	-2.1316275348	 0.7256114017	-0.1311
C	 0.0956860148	-0.8767352009	 1.0992150785	-0.032575
H	 0.8904268054	 1.934256793	 0.4694020421	 0.13851
H	-0.1029178856	 1.9294527432	-0.9918781704	 0.132264
H	-0.8681291179	 1.9063922234	 0.6006104542	 0.138491
H	-0.1426722024	-0.6621447204	-2.1245587349	 0.147537
H	 0.168821138	-0.6464626669	 2.153594692	 0.129375
107.6145	272.4093	312.1481	612.6139	651.7769	656.1141	836.9586	905.8771	907.7963	937.9816	999.8797	1033.0239	1069.869	1151.3311	1207.0541	1288.4564	1384.3608	1422.9366	1476.4574	1484.8419	1501.7969	1659.3821	3036.092	3089.1629	3117.4364	3236.1631	3262.6533
CC1=CON=C1	Cc1conc1	
InChI=1S/C4H5NO/c1-4-2-5-6-3-4/h2-3H,1H3	InChI=1S/C4H5NO/c1-4-2-5-6-3-4/h2-3H,1H3
