13
gdb 870	6.75591	2.19842	1.6798	2.5916	57.19	-0.196	0.0257	0.2217	717.3895	0.102764	-340.673967	-340.667285	-340.666341	-340.704398	24.011	
C	-0.0193807977	 1.4397422648	 0.1184775916	-0.487231
C	-0.0196415336	-0.0346223685	-0.0543844686	 0.37861
N	-0.0260503233	-0.7324517836	-1.1384473685	-0.289325
C	-0.0013951349	-2.0630988555	-0.7188266097	-0.195369
C	 0.0097575463	-2.0892329859	 0.6386221975	 0.336092
N	-0.0575447934	-3.0737239668	 1.6121991458	-0.597112
O	-0.0026094554	-0.803478177	 1.0876087914	-0.201033
H	 0.8743113851	 1.7804133231	 0.6530672923	 0.138012
H	-0.0400842485	 1.9057958287	-0.8671127841	 0.155025
H	-0.8917516266	 1.7760311968	 0.6893334073	 0.140662
H	 0.0054328012	-2.8853749444	-1.4151454766	 0.10583
H	 0.1639834651	-3.9899532299	 1.2469827997	 0.258254
H	 0.5156595259	-2.8681134217	 2.4216569818	 0.257585
129.2097	175.4806	201.4839	282.8562	330.7609	441.2609	639.1685	662.8627	680.93	717.6186	761.6897	781.3301	952.3743	989.4623	1043.7607	1064.7159	1104.4566	1148.7068	1251.4794	1291.568	1404.4578	1425.5792	1474.9748	1485.2709	1621.1143	1645.9174	1676.7897	3036.6641	3087.3532	3153.7756	3268.15	3537.5779	3639.3348
CC1=NC=C(N)O1	Cc1ncc(N)o1	
InChI=1S/C4H6N2O/c1-3-6-2-4(5)7-3/h2H,5H2,1H3	InChI=1S/C4H6N2O/c1-3-6-2-4(5)7-3/h2H,5H2,1H3
