10
gdb 3642	9.82529	2.05279	1.69803	2.9231	56.32	-0.2482	-0.019	0.2292	665.1613	0.06865	-318.344936	-318.33941	-318.338465	-318.374141	20.131	
C	-0.0005020155	-1.1503832185	-0.0036944099	-0.390985
C	-0.0080021192	 0.0513737318	 0.0030656012	 0.30489
C	-0.002828656	 1.4699277957	 0.0108686689	 0.177831
N	-1.1271307359	 2.1858740978	 0.0300007226	-0.26191
N	-0.6541538196	 3.4484141548	 0.0307993095	-0.172549
C	 0.6954815263	 3.4515516554	 0.0128847993	-0.001617
N	 1.1486070173	 2.2174738461	-0.0000158197	-0.293593
H	 0.005071975	-2.2123115802	-0.0096559709	 0.198072
H	-1.2994176036	 4.2216455242	 0.0437630037	 0.288471
H	 1.2872029111	 4.354553353	 0.0101601252	 0.151391
171.1839	176.7355	464.8055	539.2289	560.8561	610.6442	612.0208	670.9405	679.4518	779.3248	855.8925	993.1945	1000.511	1111.0216	1166.9392	1289.3785	1325.0764	1455.7016	1464.1475	1529.6393	2251.7759	3260.4254	3504.3854	3660.7183
C#CC1=NNC=N1	C#Cc1n[nH]cn1	
InChI=1S/C4H3N3/c1-2-4-5-3-6-7-4/h1,3H,(H,5,6,7)	InChI=1S/C4H3N3/c1-2-4-5-3-6-7-4/h1,3H,(H,5,6,7)
