13
gdb 3707	7.7438	2.01847	1.61953	3.6044	56.97	-0.2139	0.0205	0.2344	738.1728	0.102364	-340.641866	-340.635241	-340.634297	-340.67209	24.35	
C	-0.0263711661	 1.499523892	-0.0196606382	-0.493513
C	 0.0070689061	 0.0058823725	 0.0399407453	 0.414104
N	-0.0696371644	-0.6876319346	-1.0716741266	-0.220744
O	-0.0098354765	-2.0424500017	-0.664177073	-0.216509
C	 0.0995290563	-2.087572799	 0.6684402991	 0.490366
N	 0.2319871648	-3.3400082169	 1.2187844668	-0.592791
C	 0.1151193327	-0.8248406447	 1.1902563917	-0.429877
H	 0.8874141112	 1.9283134377	 0.4047129739	 0.135295
H	-0.120050025	 1.8312292488	-1.055427502	 0.147823
H	-0.871198609	 1.8953533935	 0.5535639768	 0.13373
H	-0.1343832281	-4.0836307489	 0.6412687433	 0.266582
H	-0.0619839066	-3.4121442224	 2.1809473577	 0.264361
H	 0.1980158147	-0.5320609563	 2.2232337951	 0.101174
132.6673	188.3589	264.045	288.6567	369.7038	433.952	575.469	609.8009	652.3997	718.6188	745.5986	768.1174	904.4053	987.4984	1031.8113	1042.4996	1065.3333	1087.4697	1190.8152	1363.7689	1410.2464	1472.3585	1481.7482	1490.2943	1555.6763	1627.5192	1673.9899	3041.3395	3096.9948	3138.7216	3273.9538	3571.8064	3677.0965
CC1=NOC(N)=C1	Cc1noc(N)c1	
InChI=1S/C4H6N2O/c1-3-2-4(5)7-6-3/h2H,5H2,1H3	InChI=1S/C4H6N2O/c1-3-2-4(5)7-6-3/h2H,5H2,1H3
