15
gdb 1912	6.1839	2.1237	1.87655	2.2367	56.77	-0.2469	0.0811	0.328	707.5833	0.124283	-345.619715	-345.613034	-345.612089	-345.649948	25.449	
C	 0.0924787274	 1.5015759069	-0.0540192869	-0.498989
C	-0.1187527021	 0.0356164353	 0.1350993478	 0.423614
C	-1.4304116776	-0.7618669375	 0.1224742483	-0.336933
C	-0.7276162465	-1.8337984001	 1.0463110233	 0.146432
O	-0.5735090749	-3.1359124179	 0.5582814828	-0.434705
C	 0.5308184024	-0.9480878743	 1.0218201241	-0.084606
O	 0.8901299182	-0.8662653918	-0.3709922849	-0.302595
H	 1.1322342165	 1.7692484707	 0.1514049135	 0.135679
H	-0.1397155034	 1.797846322	-1.0830780909	 0.13329
H	-0.5584118259	 2.0744765868	 0.6142253235	 0.126606
H	-2.2591380526	-0.2549371163	 0.6238515186	 0.10638
H	-1.7545647147	-1.1193094728	-0.858193146	 0.105529
H	-1.1962034976	-1.9063712165	 2.0305119566	 0.092742
H	-0.0304770666	-3.0539821772	-0.236764781	 0.287911
H	 1.3349448474	-0.8496156671	 1.7433812311	 0.099646
130.5644	200.7843	245.1539	331.3341	403.7071	433.3834	497.5125	579.3522	675.0042	713.0429	812.6547	861.8113	904.8756	932.1794	962.0513	1010.4317	1044.4908	1055.2917	1126.3404	1157.2099	1193.7025	1207.1482	1259.0937	1272.6059	1318.7379	1403.0319	1436.2056	1451.2168	1477.0572	1486.6748	1497.4012	3035.7656	3060.9018	3091.0316	3098.1927	3120.9133	3122.5118	3176.1503	3768.2874
CC12CC(O)C1O2	C[C@]12C[C@@H](O)[C@H]1O2	
InChI=1S/C5H8O2/c1-5-2-3(6)4(5)7-5/h3-4,6H,2H2,1H3	InChI=1S/C5H8O2/c1-5-2-3(6)4(5)7-5/h3-4,6H,2H2,1H3/t3-,4-,5+/m1/s1
