15
gdb 3373	4.06803	2.79182	2.78934	2.1962	55.62	-0.2372	0.0733	0.3105	599.1207	0.127341	-345.636145	-345.630361	-345.629417	-345.665448	22.785	
O	 0.1345663525	 1.3721706553	-0.0734204246	-0.436314
C	-0.0069658462	-0.0130763229	 0.0051774881	 0.140033
C	-0.4487405694	-0.7324623352	 1.2554620588	-0.12246
C	-1.1694424038	 0.1230456148	 2.2796214352	-0.10749
O	-2.0935463188	 0.9229843944	 1.5301284708	-0.273961
C	-2.5286059849	 0.1552670118	 0.4001095652	-0.10749
C	-1.3442501482	-0.7112316397	 0.0171110567	-0.122459
H	-0.5797998422	 1.7623741321	 0.4498571976	 0.297049
H	 0.7775842803	-0.4934151317	-0.5704033024	 0.105727
H	 0.0596591904	-1.6289690795	 1.5915118626	 0.091269
H	-1.6974521712	-0.5072693061	 3.0109592073	 0.103083
H	-0.5206579453	 0.8173281224	 2.8234081627	 0.11933
H	-3.3987299542	-0.4669380968	 0.65835619	 0.103083
H	-2.8303086836	 0.8720822906	-0.3704777993	 0.11933
H	-1.5185950354	-1.5915518896	-0.5909713887	 0.091269
202.5433	240.4757	277.8389	482.7701	541.4951	559.0582	721.6905	727.7282	763.5329	790.7063	909.8916	913.4188	966.545	1013.1822	1020.2248	1031.9699	1075.6693	1106.8018	1112.0566	1119.1492	1188.7341	1220.2878	1254.841	1314.4518	1321.645	1348.737	1354.1152	1419.6833	1472.4546	1511.1791	1523.9145	2990.5124	2995.231	3073.9602	3076.1946	3165.4525	3172.4254	3183.6386	3732.1605
OC1C2COCC12	O[C@H]1[C@H]2COC[C@@H]12	
InChI=1S/C5H8O2/c6-5-3-1-7-2-4(3)5/h3-6H,1-2H2	InChI=1S/C5H8O2/c6-5-3-1-7-2-4(3)5/h3-6H,1-2H2/t3-,4+,5-
