9
gdb 3635	10.2986	2.00602	1.67898	3.7751	55.07	-0.2707	-0.0699	0.2007	657.2493	0.05461	-338.17596	-338.170482	-338.169538	-338.205178	19.651	
C	 0.0751305683	-1.1935588609	-0.0050480716	-0.402032
C	 0.0121503274	 0.0075008331	 0.0022397971	 0.27301
C	-0.0738497435	 1.409774907	 0.0111078644	 0.305192
C	-1.1338469363	 2.2719228449	 0.0305774055	-0.226609
N	-0.6160011977	 3.5399511857	 0.0303057316	-0.102998
N	 0.6426370524	 3.5064164552	 0.0131041551	-0.00903
O	 1.0505837758	 2.1435226317	 0.0008791315	-0.20888
H	 0.132398905	-2.2548587622	-0.0114528632	 0.219034
H	-2.1913546113	 2.0752892355	 0.0438787197	 0.152314
168.8984	174.1024	446.5564	503.3496	593.8048	640.2874	690.6222	691.7273	700.5734	725.8203	842.9698	987.3229	1046.5336	1124.5855	1239.0849	1335.7089	1435.4515	1578.7805	2245.8571	3301.8895	3496.9176
C#CC1=CN=NO1	C#Cc1cnno1	
InChI=1S/C4H2N2O/c1-2-4-3-5-6-7-4/h1,3H	InChI=1S/C4H2N2O/c1-2-4-3-5-6-7-4/h1,3H
