13
gdb 2456	6.26752	2.55039	2.12706	3.9101	53.04	-0.2336	0.0508	0.2843	610.7757	0.104649	-340.664551	-340.658986	-340.658041	-340.693637	21.826	
O	-0.002696564	-0.0133838904	 0.1388514494	-0.395276
C	-0.0234664445	 1.1830106598	-0.0338520395	 0.406296
N	-1.1527590479	 1.9970138641	-0.117694968	-0.33366
C	-0.8043977522	 3.3826197497	-0.0030191022	-0.000333
C	-0.0144697993	 3.8374834303	 1.2117546278	-0.318329
C	 0.7028053863	 3.4013153737	-0.0539508505	-0.000314
N	 1.0770997948	 2.0247719191	-0.1933916442	-0.333724
H	-2.0074669785	 1.6267079255	 0.2659786678	 0.255316
H	-1.4092321593	 4.0880217388	-0.5605484722	 0.111097
H	-0.0202249864	 4.9007726751	 1.4265052101	 0.119681
H	 0.0227652668	 3.186407036	 2.0786513109	 0.122841
H	 1.2507078745	 4.1213735252	-0.6502456052	 0.111102
H	 1.9644021796	 1.676018803	 0.1320578658	 0.255302
163.5943	342.2173	436.7802	478.2259	493.8863	507.7436	706.1109	718.6444	773.3507	798.3309	819.9948	918.3178	970.3039	1004.0747	1019.7866	1054.2464	1089.9046	1146.1401	1148.5721	1209.8228	1259.5442	1371.029	1373.9926	1400.1789	1410.5682	1467.729	1853.4728	3130.538	3171.5161	3179.1786	3226.2094	3644.9572	3646.6987
O=C1NC2CC2N1	O=C1N[C@H]2C[C@H]2N1	
InChI=1S/C4H6N2O/c7-4-5-2-1-3(2)6-4/h2-3H,1H2,(H2,5,6,7)	InChI=1S/C4H6N2O/c7-4-5-2-1-3(2)6-4/h2-3H,1H2,(H2,5,6,7)/t2-,3+
