10
gdb 197	9.35884	3.9125	2.76625	1.8589	43.86	-0.2088	0.0284	0.2373	444.8744	0.075481	-301.381127	-301.376265	-301.375321	-301.409022	17.958	
N	 0.0511765992	 1.3395418917	 0.1602462928	-0.583753
C	-0.0471346269	-0.0246487616	 0.0471980751	 0.461038
N	-1.1240440101	-0.7479157014	 0.0102903533	-0.335518
C	-0.636291348	-2.0544299879	-0.0208430754	-0.102677
C	 0.7113374868	-2.0411985751	-0.009141511	-0.052831
O	 1.1132335421	-0.7166095962	 0.037132772	-0.180761
H	 0.8794901277	 1.7398888991	-0.2552407358	 0.264342
H	-0.800291496	 1.8146105134	-0.1000211577	 0.271336
H	-1.3016756023	-2.9025864727	-0.0538524781	 0.11977
H	 1.4957697874	-2.7760947594	-0.0297085353	 0.139055
283.5545	307.2282	416.5505	598.4079	618.3336	696.3567	732.4204	770.8502	862.3973	931.1806	958.082	1056.0152	1105.017	1152.744	1197.3177	1296.4869	1448.1772	1581.219	1604.6279	1680.6449	3262.339	3310.7648	3576.5155	3684.9623
NC1=NC=CO1	Nc1ncco1	
InChI=1S/C3H4N2O/c4-3-5-1-2-6-3/h1-2H,(H2,4,5)	InChI=1S/C3H4N2O/c4-3-5-1-2-6-3/h1-2H,(H2,4,5)
