13
gdb 4746	7.29124	1.26813	1.08165	5.2166	67.31	-0.2164	-0.0547	0.1618	1011.4226	0.096159	-398.631617	-398.624565	-398.623621	-398.662899	25.805	
N	-0.0123303222	 1.4342483794	 0.1526887094	-0.605499
C	 0.0071800842	 0.0414074173	 0.0407777274	 0.23744
C	-1.0586285172	-0.8240580498	 0.0073663402	-0.067497
O	-0.6394184234	-2.1129089018	-0.0189188455	-0.157597
C	 0.717077807	-2.0884817344	-0.0092867151	 0.288334
C	 1.4570684648	-3.3383867042	-0.038893514	 0.068556
O	 0.9725368941	-4.4474657637	-0.0737110347	-0.280694
C	 1.1641561368	-0.7907608255	 0.0303160172	-0.3189
H	 0.7568690912	 1.8830606886	-0.3260806635	 0.251577
H	-0.8854979678	 1.8508969194	-0.1411414987	 0.249895
H	-2.1256757741	-0.671657126	 0.006067895	 0.137547
H	 2.5580051844	-3.1772611643	-0.0263894906	 0.074155
H	 2.1962588322	-0.4739392949	 0.0540161328	 0.122683
108.6133	177.5137	215.2138	276.3149	351.7765	358.6142	491.4779	622.0707	654.1425	677.6262	715.8003	749.9906	789.111	826.9592	961.5977	1007.9945	1016.6874	1104.7321	1168.2121	1190.9884	1278.2814	1365.5215	1409.0753	1450.6604	1544.479	1645.489	1668.3753	1788.3042	2883.5783	3248.8792	3273.2539	3548.7416	3638.797
NC1=COC(C=O)=C1	Nc1coc(C=O)c1	
InChI=1S/C5H5NO2/c6-4-1-5(2-7)8-3-4/h1-3H,6H2	InChI=1S/C5H5NO2/c6-4-1-5(2-7)8-3-4/h1-3H,6H2
