19
gdb 4539	3.79897	1.62287	1.1618	1.9086	80.38	-0.187	0.0539	0.2409	1071.4445	0.164975	-327.975869	-327.966798	-327.965854	-328.010147	32.178	
C	-0.0329121963	 1.4365479122	 0.0386936739	-0.336142
N	-0.0011060863	-0.0088370382	 0.0263627054	-0.034114
C	-0.0289686857	-0.7956574874	-1.104737826	-0.205728
C	 0.0075134913	-2.1183616718	-0.7302309838	 0.279737
C	-0.0038497957	-3.3068971553	-1.6438856631	-0.49709
C	 0.0590451956	-2.1264796849	 0.6950143419	-0.339763
C	 0.0525459285	-0.8219262241	 1.1386771462	 0.310658
C	 0.0924290707	-0.2707873479	 2.5256985083	-0.501132
H	 0.8504969812	 1.8523800881	 0.5359305025	 0.134155
H	-0.0485426184	 1.7994853274	-0.9904184912	 0.138644
H	-0.9248972728	 1.8156983585	 0.5505148261	 0.13374
H	-0.0722943191	-0.3439579045	-2.0841750639	 0.10489
H	 0.8936617988	-3.9251820417	-1.5211647951	 0.119477
H	-0.8659093404	-3.9583249516	-1.4559064172	 0.119474
H	-0.0485504313	-2.9981362041	-2.6927632967	 0.113246
H	 0.0980134805	-2.9992849736	 1.3313714034	 0.081215
H	 0.9707354496	 0.3639846864	 2.7020344697	 0.122584
H	-0.7924856757	 0.3334438523	 2.7649386876	 0.122526
H	 0.1324078956	-1.0925202897	 3.244285402	 0.133622
32.1143	102.4755	150.1963	165.683	205.5462	255.0465	269.1567	303.148	462.3043	579.4228	622.3444	636.0197	644.9475	703.5288	786.8297	796.393	991.0578	1001.2692	1018.6742	1060.1662	1063.0181	1075.0351	1148.9979	1168.1315	1189.4016	1245.9561	1376.5752	1386.3942	1417.4832	1423.1428	1440.7529	1472.0346	1475.9404	1482.9184	1488.487	1489.0848	1507.6104	1518.5045	1559.9025	1626.8499	3009.7919	3019.4252	3025.4127	3049.9677	3065.2766	3076.2112	3098.6084	3120.8495	3134.4215	3228.7355	3244.2128
CN1C=C(C)C=C1C	Cn1cc(C)cc1C	
InChI=1S/C7H11N/c1-6-4-7(2)8(3)5-6/h4-5H,1-3H3	InChI=1S/C7H11N/c1-6-4-7(2)8(3)5-6/h4-5H,1-3H3
