15
gdb 1504	5.05847	1.42126	1.1325	1.1132	58.44	-0.2506	-0.0939	0.1567	1011.9019	0.122047	-345.681183	-345.672963	-345.672018	-345.714683	27.451	
C	-0.2229572427	 1.5101600786	-0.2649194842	-0.386973
C	 0.0814213864	 0.0379588613	 0.0204370267	-0.169411
C	 0.6239348566	-0.6959460196	-1.2052553307	-0.285747
C	 0.9347107369	-2.1510514766	-0.9572891429	 0.280062
O	 0.7852958603	-2.7268275291	 0.0962311414	-0.275062
C	 1.485096833	-2.9620611351	-2.1410880068	 0.092913
O	 1.6763039048	-2.5009345936	-3.235189353	-0.218566
H	 0.6756421566	 2.0483216809	-0.5865557546	 0.116799
H	-0.9717426048	 1.6164047738	-1.0577538992	 0.116794
H	-0.609642939	 2.0119427464	 0.6270140094	 0.118589
H	 0.806413371	-0.0468359135	 0.8374247825	 0.113857
H	-0.8212370703	-0.4734905802	 0.3724432685	 0.113839
H	-0.0757154524	-0.6471370852	-2.0518275196	 0.138134
H	 1.5389026924	-0.2238116025	-1.5906422296	 0.138142
H	 1.6874398312	-4.0217834455	-1.8761786679	 0.10663
47.5592	94.1573	131.2639	134.8065	246.9107	258.4314	346.2187	459.8042	511.9248	632.7882	724.1506	819.7799	841.4477	921.3499	978.6835	1050.7088	1112.6849	1118.4437	1169.3064	1241.9892	1317.8462	1328.7493	1364.041	1400.4174	1418.136	1436.2331	1487.3462	1501.4146	1507.6858	1802.1459	1824.9123	2920.4129	3019.79	3031.1013	3040.6816	3046.2185	3074.7894	3100.9823	3107.0137
CCCC(=O)C=O	CCCC(=O)C=O	
InChI=1S/C5H8O2/c1-2-3-5(7)4-6/h4H,2-3H2,1H3	InChI=1S/C5H8O2/c1-2-3-5(7)4-6/h4H,2-3H2,1H3
