14
gdb 3789	7.52373	2.00036	1.61466	1.4579	59.75	-0.19	0.0346	0.2246	748.1455	0.116058	-320.770329	-320.763711	-320.762767	-320.800923	24.025	
C	 0.0829289629	 1.3894706737	 0.1297969741	-0.322752
N	-0.2024295009	-0.0013266624	-0.1724130699	-0.364475
C	 0.5366305781	-0.6339078784	-1.160691322	 0.406222
N	 0.7017040104	-1.9566814449	-1.1320190034	-0.333115
N	 1.4024533483	-2.2265221955	-2.2623927701	-0.182857
C	 1.6901962992	-1.123111922	-2.9827997366	-0.015043
C	 1.147022175	-0.0524976129	-2.3037646013	-0.284915
H	 1.133484642	 1.5818219966	 0.4007551494	 0.109631
H	-0.1629133649	 2.0194766545	-0.7315609741	 0.130318
H	-0.5533390892	 1.709469655	 0.9584832631	 0.123245
H	-0.3075362803	-0.5896205271	 0.6420419701	 0.239131
H	 1.6527198318	-3.1788742869	-2.4596284964	 0.271438
H	 2.2468545541	-1.174623758	-3.9055178084	 0.126463
H	 1.1804083934	 0.9842595886	-2.5926895944	 0.096708
81.7791	165.9619	223.2403	332.5117	419.6653	454.2404	593.1947	645.3447	722.6786	729.2456	754.476	818.956	941.2793	978.3505	1055.169	1089.888	1126.2954	1156.3788	1165.6342	1225.7127	1323.2156	1374.3497	1456.2602	1471.3425	1488.5466	1498.4041	1519.4758	1538.3349	1613.9474	2974.4899	3065.6131	3115.9727	3255.5481	3279.558	3594.8418	3693.6563
CNC1=NNC=C1	CNc1n[nH]cc1	
InChI=1S/C4H7N3/c1-5-4-2-3-6-7-4/h2-3H,1H3,(H2,5,6,7)	InChI=1S/C4H7N3/c1-5-4-2-3-6-7-4/h2-3H,1H3,(H2,5,6,7)
