12
gdb 4292	4.08165	2.04001	1.36019	5.8833	60.14	-0.2299	-0.0293	0.2006	817.2759	0.086972	-410.886702	-410.880366	-410.879422	-410.917473	23.663	
O	-0.0918019646	 1.3096548173	 0.0101977207	-0.408069
C	 0.0484032503	-0.0218772665	 0.0023954308	 0.502734
N	 1.1860334861	-0.594324653	-0.0072868537	-0.359989
C	 1.2210278093	-2.0026275616	-0.0149371544	 0.359638
N	 2.3478918563	-2.5949318995	-0.024255249	-0.508817
N	-0.0100006198	-2.72675113	-0.0115226193	-0.285297
C	-1.0972953311	-2.0636807566	-0.0016679256	 0.089395
N	-1.1550951124	-0.6835326046	 0.0059620972	-0.351656
H	 0.8077376827	 1.669790098	 0.0068354964	 0.319662
H	 2.1757676342	-3.6010272343	-0.0284100076	 0.219815
H	-2.0618257976	-2.5673917144	 0.0012986516	 0.140716
H	-2.0235516633	-0.1739176948	 0.0137193029	 0.281869
79.5259	206.3603	370.1979	382.5185	499.3355	528.8974	549.701	560.8255	586.3994	728.3688	791.4821	792.704	904.3861	925.7398	964.4664	1004.4968	1053.6091	1152.5359	1249.2794	1324.5329	1383.0078	1414.7761	1526.8047	1660.8242	1712.662	1767.7059	3157.6559	3484.9608	3653.5432	3759.1881
OC1=NC(=N)N=CN1	O[C@@H]1N=C([NH])N=CN1	
InChI=1S/C3H4N4O/c4-2-5-1-6-3(8)7-2/h1H,(H3,4,5,6,7,8)	InChI=1S/C3H5N4O/c4-2-5-1-6-3(8)7-2/h1,3-4,8H,(H,5,6,7)/t3-/m0/s1
