14
gdb 3589	4.87518	3.29968	2.58459	3.1947	55.72	-0.2394	0.0689	0.3083	562.1889	0.115715	-324.528642	-324.523501	-324.522557	-324.557242	20.805	
C	-0.0077197664	 1.515049639	 0.104799039	-0.245201
C	 1.4342879927	 1.9953032246	-0.0752732186	-0.038399
N	 2.3882840706	 1.4944050391	 0.9296766486	-0.310095
C	 2.304152308	 0.8248347391	-0.3854036419	-0.079052
C	 1.4256988867	-0.4114987885	-0.3898559807	 0.049449
O	 0.8152931955	-0.7153859103	 0.8642488215	-0.230709
C	 0.0399511044	 0.0018240278	-0.0979170465	 0.037334
H	-0.4155169234	 1.780963085	 1.0847929756	 0.125643
H	-0.647779725	 1.9642129498	-0.663138015	 0.102251
H	 1.6096640869	 2.9720325055	-0.516142984	 0.087619
H	 3.2073395782	 2.0989391766	 0.9356960877	 0.229996
H	 3.1401354841	 0.8802971274	-1.0738276846	 0.085513
H	 1.6857714832	-1.263002382	-1.012798889	 0.09298
H	-0.8363615756	-0.5248342132	-0.470915192	 0.092671
262.5266	310.4657	407.7577	565.9322	700.9661	706.8198	768.0255	837.6485	856.6737	860.1818	888.7856	906.0193	940.7901	975.9284	1014.7572	1037.5603	1075.4693	1115.6039	1146.0606	1166.764	1208.5614	1224.2468	1262.0171	1311.2885	1317.1368	1375.0229	1420.3345	1428.1053	1463.0653	3046.8899	3095.1956	3128.834	3150.689	3151.3857	3177.0954	3488.4954
C1C2NC2C2OC12	C1[C@H]2N[C@H]2[C@H]2O[C@@H]12	
InChI=1S/C5H7NO/c1-2-4(6-2)5-3(1)7-5/h2-6H,1H2	InChI=1S/C5H7NO/c1-2-4(6-2)5-3(1)7-5/h2-6H,1H2/t2-,3+,4-,5+/m1/s1
