17
gdb 1927	4.46944	2.76362	2.38599	1.3359	63.15	-0.251	0.0769	0.3279	643.4104	0.150699	-309.712046	-309.706065	-309.705121	-309.741282	24.716	
O	-0.0743386391	 1.3966157227	 0.004026384	-0.485786
C	-0.0140337281	 0.0043267289	 0.0227930932	 0.428447
C	 0.3087389667	-0.826610065	 1.308800616	-0.281702
C	-0.4411667149	-1.9320029258	 0.5132442467	-0.015936
C	-1.3412570189	-0.7888026829	-0.0413948462	-0.251584
C	 0.5203760946	-2.1866195851	-0.6687677155	-0.205931
C	 0.8462983948	-0.7059187401	-1.0450536767	-0.270312
H	 0.8236172981	 1.7384063522	-0.064812397	 0.276617
H	 1.3571449692	-0.9989285412	 1.5731795319	 0.078996
H	-0.2527428071	-0.4676381693	 2.1737904958	 0.098931
H	-0.8689176702	-2.8007456966	 1.0108481497	 0.062249
H	-2.0670678085	-0.4281182843	 0.690354809	 0.10131
H	-1.814843606	-0.92287258	-1.0184485403	 0.086734
H	 1.4078126621	-2.7508547363	-0.3674203686	 0.095298
H	 0.0384804082	-2.7299682923	-1.4866634249	 0.097172
H	 0.5339489374	-0.4369424603	-2.0581300353	 0.100555
H	 1.9100412719	-0.4641646544	-0.9411666719	 0.084943
245.1982	272.1062	355.9381	384.0895	445.7406	520.646	583.9593	673.1635	815.6015	829.8786	838.7236	890.0962	907.8918	943.0248	965.2161	980.2748	998.8622	1011.2014	1084.3711	1103.3012	1129.699	1148.351	1186.8018	1216.0299	1237.4976	1242.6499	1262.33	1275.839	1314.8406	1334.4349	1388.7423	1482.8481	1493.412	1501.4135	1533.8439	3037.7479	3045.0214	3052.2603	3057.3765	3082.992	3101.3609	3118.3601	3122.6646	3129.3755	3804.0366
OC12CC(C1)CC2	O[C@@]12C[C@@H](C1)CC2	
InChI=1S/C6H10O/c7-6-2-1-5(3-6)4-6/h5,7H,1-4H2	InChI=1S/C6H10O/c7-6-2-1-5(3-6)4-6/h5,7H,1-4H2/t5-,6-
