15
gdb 3533	7.15977	2.30066	2.23	1.5147	60.59	-0.2522	0.0708	0.323	633.7925	0.126275	-308.434866	-308.42932	-308.428376	-308.463819	22.367	
O	 0.2409841691	 1.4282820657	-0.1758502151	-0.448589
C	 0.0825141315	 0.0365651317	-0.0677619059	 0.155326
C	 0.0620678372	-0.6422050712	 1.3165835031	-0.089422
C	-1.4529399687	-0.2822612133	 1.5542607558	-0.061286
C	-1.8199339077	-1.7420199752	 1.8815489724	-0.260475
C	-0.7700461517	-1.8491206848	 0.7582778792	-0.036172
C	-1.3260916743	-0.5853300514	 0.0136902129	-0.089423
H	-0.3423604458	 1.8507186195	 0.4640907532	 0.280755
H	 0.7593199538	-0.4018152146	-0.8079967015	 0.081879
H	 0.8384442277	-0.6957399836	 2.0817677264	 0.070779
H	-1.8432017531	 0.6300752692	 2.0098883762	 0.066303
H	-1.5267568255	-2.1149834432	 2.8682107966	 0.093368
H	-2.8382543635	-2.0612494764	 1.6372701971	 0.093368
H	-0.3564794101	-2.7372576607	 0.2788763445	 0.072809
H	-2.1398037889	-0.5737173618	-0.7135449949	 0.070779
215.1257	274.5163	338.0544	460.6959	547.801	721.6997	771.6514	837.8293	846.9234	860.4856	898.9599	912.8666	922.7212	966.4516	1008.2651	1027.4141	1067.4343	1082.9875	1130.0489	1135.9294	1151.4132	1154.4918	1168.95	1188.0138	1241.2165	1243.0503	1281.8012	1302.3432	1313.6032	1446.0557	1513.1853	3037.0555	3066.6071	3083.9428	3093.8351	3098.7184	3099.0561	3113.5997	3803.7315
OC1C2C3CC2C13	O[C@H]1[C@H]2[C@@H]3C[C@H]2[C@H]13	
InChI=1S/C6H8O/c7-6-4-2-1-3(4)5(2)6/h2-7H,1H2	InChI=1S/C6H8O/c7-6-4-2-1-3(4)5(2)6/h2-7H,1H2/t2-,3+,4-,5+,6-
