12
gdb 4245	3.98261	2.02244	1.3413	1.3199	59.97	-0.2574	-0.0411	0.2163	825.8887	0.08634	-414.723125	-414.716935	-414.71599	-414.753641	23.26	
N	-0.0825581237	 1.3386353617	-0.1288727755	-0.529129
C	-0.042973788	 0.0721730845	 0.013490447	 0.390053
N	 1.1303697557	-0.7037611554	 0.0810797342	-0.447317
C	 1.2347592666	-2.0679315683	 0.2334656673	 0.490409
O	 2.2690225863	-2.6682365665	 0.2838201609	-0.359075
O	 0.0380311487	-2.7404204183	 0.3298602298	-0.220493
C	-1.1431037221	-2.0607919471	 0.2732694736	 0.077705
C	-1.2447115999	-0.7394323909	 0.1257208511	-0.177527
H	 0.8508445091	 1.7485654365	-0.1911280238	 0.212659
H	 2.0237685328	-0.2367861616	 0.0131735493	 0.269717
H	-1.9806367007	-2.7402272035	 0.364353069	 0.153339
H	-2.2048297948	-0.2467850313	 0.0864882271	 0.139657
135.2409	153.7461	379.1478	383.7875	497.4449	542.634	586.6356	615.8647	710.1316	763.3217	773.4156	824.2637	861.9734	908.3241	969.3378	982.0272	1051.7747	1139.3155	1231.9922	1273.6016	1386.1231	1421.8123	1438.2831	1681.5806	1742.9853	1881.4597	3227.0411	3257.2201	3463.4576	3614.8327
N=C1NC(=O)OC=C1	[NH]C1=C[CH]OC(=O)N1	
InChI=1S/C4H4N2O2/c5-3-1-2-8-4(7)6-3/h1-2H,(H2,5,6,7)	InChI=1S/C4H4N2O2/c5-3-1-2-8-4(7)6-3/h1-2H,(H2,5,6,7)
