12
gdb 3276	5.95174	2.67158	2.17012	3.0496	51.45	-0.2644	0.0005	0.2649	595.0988	0.091173	-360.472117	-360.466709	-360.465765	-360.501342	20.105	
N	 0.0085298425	 1.1188816815	 0.367485863	-0.539098
C	-0.0220359327	-0.0798417246	 0.0143362109	 0.442834
O	 1.0001823269	-0.9401630604	-0.382608516	-0.270179
C	 0.0601599936	-2.0198165642	-0.6479856538	 0.055654
C	-0.2291200223	-2.8692337184	 0.5932576178	-0.094819
O	-1.2693128491	-1.951181259	 1.0210652546	-0.282478
C	-1.103852301	-1.13497564	-0.1570666131	-0.016478
H	 0.961049521	 1.4885165594	 0.3758954229	 0.234631
H	 0.2036771471	-2.4624571395	-1.6307698424	 0.111836
H	-0.644711876	-3.8610414812	 0.3803721427	 0.11751
H	 0.593960818	-2.9486103141	 1.310195403	 0.12706
H	-2.0381396381	-0.8849395795	-0.6582652297	 0.113527
141.3132	247.8831	382.6461	435.4045	640.8245	719.7553	807.4151	835.8297	873.7469	888.3293	950.4497	977.6975	1002.7054	1014.5769	1041.9867	1072.4993	1160.1447	1179.6978	1219.6813	1245.5052	1287.4478	1329.181	1352.3411	1501.8681	1830.212	3032.8691	3093.7649	3129.0548	3150.5918	3474.7992
N=C1OC2COC12	[NH][C]1O[C@H]2CO[C@@H]12	
InChI=1S/C4H5NO2/c5-4-3-2(7-4)1-6-3/h2-3,5H,1H2	InChI=1S/C4H5NO2/c5-4-3-2(7-4)1-6-3/h2-3,5H,1H2/t2-,3+/m0/s1
