10
gdb 3927	8.79957	2.19251	1.75519	2.7241	50.24	-0.291	-0.068	0.223	636.6098	0.068939	-355.525451	-355.520145	-355.5192	-355.55477	18.263	
O	-0.0667610259	-0.0408840596	 0.0003219805	-0.236351
C	-0.0028383711	 1.1505414499	 0.0089028323	 0.195436
N	 1.1955811421	 1.8913601424	 0.0016773447	-0.022645
C	 1.3210723238	 3.2552948079	 0.0109238805	 0.047585
N	 2.5814325735	 3.5981212105	 0.0000409544	-0.267291
C	 3.2203719755	 2.3791166833	-0.0163472467	 0.062956
N	 2.4373364276	 1.3247693789	-0.0161604263	-0.20552
H	-0.8729454188	 1.8314968143	 0.0235386761	 0.112356
H	 0.4697322637	 3.9198208078	 0.025271985	 0.165145
H	 4.2961685596	 2.2858985645	-0.0286666405	 0.14833
131.0214	236.9524	277.1596	520.4186	651.6353	685.7124	813.5231	867.8819	931.0479	960.405	1002.1728	1024.2711	1147.7159	1214.1331	1282.2992	1306.0697	1391.2506	1432.4875	1449.0959	1570.8272	1861.4593	2980.0311	3257.4238	3265.682
O=CN1C=NC=N1	O=Cn1cncn1	
InChI=1S/C3H3N3O/c7-3-6-2-4-1-5-6/h1-3H	InChI=1S/C3H3N3O/c7-3-6-2-4-1-5-6/h1-3H
