15
gdb 1165	3.06241	2.40041	1.92733	3.471	57.71	-0.2517	-0.0369	0.2149	745.2339	0.120988	-345.676743	-345.668356	-345.667412	-345.709618	28.519	
C	 0.1257384667	 1.7019105782	 0.0577800896	-0.434984
C	 0.043377534	 0.1589319269	-0.018634507	 0.050789
C	 0.4969908573	-0.4868092154	 1.299923091	-0.421366
C	-1.3888964404	-0.2314237889	-0.3740691925	 0.161107
O	-2.11232467	-0.8776384491	 0.336308026	-0.24759
C	 0.9752352309	-0.3004797836	-1.136120432	 0.152772
O	 0.6443602362	-0.9466843144	-2.0954244961	-0.245117
H	 1.1658007812	 2.0240189241	 0.173889159	 0.131904
H	-0.2748480913	 2.1725565144	-0.8459432474	 0.134525
H	-0.4403731874	 2.0696443211	 0.9184124337	 0.141028
H	-0.1302071357	-0.1347999077	 2.1224174608	 0.140059
H	 0.4077776582	-1.5748619877	 1.2561913224	 0.143635
H	 1.5369172763	-0.2267561837	 1.5215914073	 0.117349
H	-1.7365745044	 0.1585223744	-1.3544270199	 0.092981
H	 2.0348156285	 0.0164640313	-0.9883843149	 0.082909
67.4084	76.4926	183.9981	217.8317	235.1487	283.9385	314.4067	332.9437	363.4423	549.3995	620.8866	769.6279	895.2517	925.3675	953.387	963.612	1023.7208	1056.8825	1180.9333	1231.5042	1265.4205	1393.0031	1405.1698	1417.9221	1436.0672	1480.2061	1482.8737	1499.4406	1506.9007	1822.0066	1840.0925	2853.4953	2907.8403	3033.4168	3046.1943	3104.5769	3114.4845	3119.8207	3132.3621
CC(C)(C=O)C=O	CC(C)(C=O)C=O	
InChI=1S/C5H8O2/c1-5(2,3-6)4-7/h3-4H,1-2H3	InChI=1S/C5H8O2/c1-5(2,3-6)4-7/h3-4H,1-2H3
