14
gdb 3714	7.11252	1.87822	1.63886	4.871	58.79	-0.2501	0.0024	0.2525	762.3412	0.115437	-320.764569	-320.758051	-320.757107	-320.795711	23.043	
C	 0.130037069	 1.54811343	 0.1681931389	-0.370765
C	-0.0983117495	 0.0433466009	-0.0616189988	-0.304896
C	 0.5906727817	-0.4871858642	-1.2778989625	 0.341441
C	 0.1361806419	-0.9260362068	-2.5012960799	-0.149986
N	 1.1968584197	-1.2901520497	-3.2759065921	-0.185554
N	 2.2952310516	-1.1038604368	-2.6056817153	-0.118209
N	 1.9371843748	-0.6178189414	-1.3982519253	-0.229753
H	 1.1918692351	 1.7754969501	 0.3072104936	 0.116775
H	-0.2249485975	 2.1307448154	-0.6864969306	 0.134641
H	-0.4041086458	 1.8856940158	 1.0609915195	 0.12365
H	 0.2274316969	-0.5166948734	 0.8242146199	 0.118137
H	-1.1692825272	-0.1534460155	-0.1692167956	 0.127914
H	-0.8786583334	-1.0009216721	-2.858036816	 0.120011
H	 2.6551940027	-0.4111856823	-0.7221047558	 0.276593
43.1054	157.7983	209.4956	329.6947	396.0767	579.0637	642.697	717.8211	729.5489	785.3644	847.8071	965.7887	996.0127	1051.3771	1067.9836	1082.7787	1089.8035	1138.6906	1232.343	1279.3653	1325.1531	1361.9375	1383.1258	1414.2284	1440.7366	1485.3501	1497.3545	1505.8368	1609.2711	3029.0494	3040.6811	3081.3613	3111.9513	3121.5941	3266.8861	3653.8391
CCC1=CN=NN1	CCc1cnn[nH]1	
InChI=1S/C4H7N3/c1-2-4-3-5-7-6-4/h3H,2H2,1H3,(H,5,6,7)	InChI=1S/C4H7N3/c1-2-4-3-5-7-6-4/h3H,2H2,1H3,(H,5,6,7)
