15
gdb 2704	7.09617	1.15184	1.03803	2.0413	60.22	-0.2646	0.0249	0.2895	1088.4766	0.122645	-345.597175	-345.588972	-345.588028	-345.630283	28.265	
O	-0.0126052459	 1.4137821859	-0.0922713942	-0.420201
C	 0.0091612036	 0.0056558768	 0.0162859153	-0.060153
C	-1.3975322268	-0.571354537	 0.0332406358	-0.061591
O	-2.0043268943	-0.1854460879	-1.1893460467	-0.257481
C	-3.3758918562	-0.5253048495	-1.2612299266	-0.201326
C	-3.9355108016	-0.0705985595	-2.5269465059	 0.276471
C	-4.420038722	 0.2960176031	-3.5625063698	-0.410783
H	-0.589473614	 1.6107314524	-0.8399363204	 0.291851
H	 0.5740664938	-0.4559973598	-0.8091711862	 0.096731
H	 0.51953665	-0.2414151682	 0.9529424482	 0.109455
H	-1.3731576944	-1.6691248223	 0.1316244297	 0.090189
H	-1.9626959001	-0.1600153294	 0.8849631926	 0.097798
H	-3.5057068132	-1.6167776388	-1.167978635	 0.122109
H	-3.9294017939	-0.0687950216	-0.4232221388	 0.123344
H	-4.844573275	 0.6208364158	-4.480223448	 0.203589
60.1425	88.2829	123.7849	180.88	276.8353	332.4735	350.18	435.1314	497.1033	567.1192	612.0729	680.5223	873.7684	903.6725	977.7453	1029.5859	1050.1368	1086.9407	1138.1685	1145.2201	1238.5202	1250.0615	1266.1724	1375.1464	1388.2167	1431.4151	1444.3327	1493.7285	1498.9172	1515.9254	2248.894	2956.4456	2968.6611	2977.6571	2980.6079	3010.0854	3080.2554	3505.9904	3794.0957
OCCOCC#C	OCCOCC#C	
InChI=1S/C5H8O2/c1-2-4-7-5-3-6/h1,6H,3-5H2	InChI=1S/C5H8O2/c1-2-4-7-5-3-6/h1,6H,3-5H2
