11
gdb 493	9.41986	2.01611	1.74724	3.3466	50.16	-0.2698	0.0135	0.2834	665.5192	0.083043	-285.242094	-285.235491	-285.234547	-285.272892	21.973	
N	-0.0291768194	 1.116101786	-0.181766016	-0.433623
C	-0.2772406535	-0.0926152673	 0.0740482932	 0.136946
O	-0.4561169527	-0.9673143881	-0.9420639927	-0.171618
C	-0.7511695981	-2.3133744859	-0.5626122353	-0.230638
C	-2.0963027316	-2.4802367072	-0.01983899	 0.311785
C	-3.2008255084	-2.6096198282	 0.4341687744	-0.447491
H	 0.0904145669	 1.6377800217	 0.6840272862	 0.231677
H	-0.3670620574	-0.5489593973	 1.0687053073	 0.094541
H	-0.6345299441	-2.8973305886	-1.4794969971	 0.158242
H	-0.005042633	-2.6785483367	 0.1566438957	 0.138596
H	-4.1801392988	-2.7263253485	 0.8290401342	 0.211584
73.0192	84.908	217.1606	317.4277	332.8594	500.4917	629.2948	671.4564	692.5935	818.9927	925.2879	969.8638	1035.0581	1039.7354	1124.2161	1241.7479	1317.2951	1392.8647	1427.1475	1483.5676	1751.1515	2240.7557	3013.0883	3033.5017	3094.5826	3503.2584	3520.1558
N=COCC#C	[NH][CH]OCC#C	
InChI=1S/C4H5NO/c1-2-3-6-4-5/h1,4-5H,3H2	InChI=1S/C4H5NO/c1-2-3-6-4-5/h1,4-5H,3H2
