13
gdb 4723	6.9807	1.28162	1.09014	5.1289	69.77	-0.2454	-0.0427	0.2027	1021.7622	0.096334	-361.511275	-361.504227	-361.503282	-361.542758	25.226	
C	-0.0004530061	 1.5331493734	-0.0301839272	-0.502737
C	 0.0007208942	 0.0363133915	 0.0150172116	 0.265628
C	-0.0600968472	-0.827224283	-1.0400490296	-0.099038
O	-0.0382100342	-2.1178565748	-0.6332383191	-0.168193
C	 0.0392149776	-2.0902575157	 0.7291979846	 0.287001
C	 0.0659276145	-0.7984375394	 1.1745940301	-0.3739
C	 0.0768867838	-3.3238584914	 1.4135345871	 0.225539
N	 0.1090889162	-4.3242167582	 1.9972708502	-0.336769
H	 0.9086634178	 1.9457128089	 0.4199436406	 0.141135
H	-0.0582982935	 1.8953174393	-1.0597860805	 0.133341
H	-0.8523131211	 1.9473484477	 0.5194485635	 0.14114
H	-0.1205579735	-0.6760404933	-2.1059222481	 0.149752
H	 0.1249153113	-0.486468935	 2.2056987967	 0.137101
115.239	132.4065	155.0602	288.7348	320.1764	504.0571	527.7276	570.8267	616.7098	681.3244	698.1939	788.2974	853.0727	963.5246	990.8927	1018.7528	1066.8798	1162.0687	1178.7296	1240.5915	1307.7314	1391.2361	1422.7147	1483.0796	1497.5373	1538.178	1642.0086	2343.1405	3037.7553	3092.8366	3119.4953	3262.8097	3273.9173
CC1=COC(=C1)C#N	Cc1coc(c1)C#N	
InChI=1S/C6H5NO/c1-5-2-6(3-7)8-4-5/h2,4H,1H3	InChI=1S/C6H5NO/c1-5-2-6(3-7)8-4-5/h2,4H,1H3
