10
gdb 3706	7.46415	2.28643	1.76961	4.3069	44.83	-0.2863	-0.018	0.2683	649.0206	0.066413	-396.477101	-396.471352	-396.470408	-396.506743	20.108	
C	-0.0068444268	 1.4777012931	 0.0878813352	-0.488923
C	-0.0097281196	 0.0042191756	-0.0513397917	 0.437125
N	-0.1012423614	-0.6550412246	-1.1471397342	-0.167524
O	-0.0565080292	-2.0164932019	-0.7438793325	-0.227724
C	 0.061512143	-2.0793978643	 0.6050241552	 0.517003
O	 0.1272178657	-3.048857073	 1.2818068525	-0.354589
O	 0.0921264204	-0.7685995304	 1.0581585141	-0.223297
H	 0.9234335212	 1.8122112391	 0.5567101626	 0.167418
H	-0.1024164912	 1.9329271032	-0.8982044967	 0.173168
H	-0.837972482	 1.7998938831	 0.7222307355	 0.167344
164.9153	179.4423	296.096	326.4806	541.1587	641.1626	643.2257	774.0872	779.7018	885.2287	942.1246	995.0933	1035.6207	1071.335	1153.895	1361.6444	1428.0996	1469.35	1473.6168	1700.4637	1954.8414	3054.368	3117.4959	3162.2758
CC1=NOC(=O)O1	Cc1noc(=O)o1	
InChI=1S/C3H3NO3/c1-2-4-7-3(5)6-2/h1H3	InChI=1S/C3H3NO3/c1-2-4-7-3(5)6-2/h1H3
