14
gdb 866	6.63363	2.1472	1.65556	1.7659	60.38	-0.2243	0.0129	0.2372	750.3418	0.11372	-324.629068	-324.622246	-324.621302	-324.659799	24.109	
C	 0.1056092158	 1.4621559693	-0.0759795832	-0.494703
C	-0.0575405048	-0.0084624721	 0.0311281538	 0.326031
C	-1.0917941384	-0.8460287678	 0.2803938387	-0.196936
N	-0.6460634217	-2.1639516999	 0.2582327726	-0.298254
C	 0.6193654285	-2.0730506324	 0.0006193259	 0.37915
C	 1.6178372485	-3.1637690447	-0.144025647	-0.487676
O	 1.056514917	-0.79241577	-0.151793352	-0.207026
H	 0.8175961735	 1.8441877041	 0.6643521622	 0.140377
H	 0.4716833327	 1.7565954127	-1.0660584514	 0.140373
H	-0.8563670647	 1.9519240798	 0.0915749578	 0.140273
H	-2.1236941361	-0.5986095564	 0.4741740612	 0.116241
H	 2.0741211568	-3.153530062	-1.1395169338	 0.143028
H	 2.4251946646	-3.0612566864	 0.5886883076	 0.142991
H	 1.1183939082	-4.1207669643	 0.0083475778	 0.156132
115.5242	151.374	189.6451	257.5615	306.194	402.4437	624.9549	647.2073	693.5706	725.9346	846.9814	943.1133	985.5941	1027.1461	1042.2544	1063.8096	1070.6007	1156.109	1229.5006	1254.6008	1355.7815	1411.5785	1420.7392	1473.0128	1476.4934	1481.901	1492.2149	1620.5827	1652.927	3031.3489	3042.4204	3082.4304	3095.5748	3128.3224	3157.0364	3260.6661
CC1=CN=C(C)O1	Cc1cnc(C)o1	
InChI=1S/C5H7NO/c1-4-3-6-5(2)7-4/h3H,1-2H3	InChI=1S/C5H7NO/c1-4-3-6-5(2)7-4/h3H,1-2H3
