15
gdb 3253	6.222	2.3168	2.12314	2.2516	60.92	-0.2246	0.0704	0.295	656.1917	0.126704	-304.614169	-304.608359	-304.607415	-304.643505	22.879	
C	-0.0635701344	 1.5180708174	-0.0343198135	-0.312254
N	 1.1926572771	 0.7389366606	 0.0569581762	-0.365685
C	-0.0825776189	 0.0399311356	-0.0045596825	 0.362972
C	-0.5034280636	-0.9934819543	 1.0448334233	-0.235269
N	-0.8555459094	-1.9948398231	-0.0330003118	-0.122665
C	-1.9150026336	-1.3600829546	-0.8356903279	-0.236407
C	-0.5178610958	-0.9364334121	-1.0714808296	-0.120934
H	-0.3076673245	 2.0884244444	 0.8580139598	 0.121153
H	-0.3093047764	 2.0131410459	-0.9709651726	 0.112798
H	 1.6574752834	 0.7135866447	-0.8482132354	 0.231895
H	 0.3404483477	-1.3533845186	 1.6365828623	 0.127576
H	-1.3424020676	-0.7461491046	 1.7039018495	 0.104704
H	-2.3669477483	-2.0383497497	-1.5534816994	 0.122346
H	-2.6104463683	-0.675996701	-0.352894929	 0.112936
H	 0.0323424927	-1.1743088305	-1.9778750095	 0.096835
153.2636	275.0007	327.7245	432.6168	482.0223	558.0482	743.6239	779.8947	811.9795	854.9092	889.5031	940.6424	955.3256	978.7359	1015.1029	1031.214	1055.2044	1087.0452	1111.3884	1113.7899	1131.7857	1196.164	1216.096	1259.2178	1271.8941	1295.3908	1325.9848	1435.153	1485.7941	1501.8489	1516.4813	3046.6882	3099.2033	3102.0147	3119.7987	3147.0733	3187.2899	3193.1969	3488.4986
C1NC11CN2CC12	C1N[C@]21CN1C[C@@H]21	
InChI=1S/C5H8N2/c1-4-5(2-6-5)3-7(1)4/h4,6H,1-3H2	InChI=1S/C5H8N2/c1-4-5(2-6-5)3-7(1)4/h4,6H,1-3H2/t4-,5+,7?/m0/s1
