14
gdb 3313	5.50326	2.2117	2.1037	2.0513	57.12	-0.2383	-0.0285	0.2098	657.8202	0.113629	-324.531139	-324.524923	-324.523979	-324.561569	22.567	
O	-0.7241278149	 0.951675234	-0.3718645407	-0.247077
C	 0.2445949697	 0.948293171	 0.346644235	 0.144237
C	 1.4070017207	 1.8957647216	 0.2215543886	-0.096247
C	 1.3672269983	 3.0252444412	-0.8332089539	-0.184235
N	 1.5031660197	 4.0989525854	 0.2201418187	-0.119138
C	 0.3188180823	 3.9606063081	 1.084323858	-0.235936
C	 1.4393882348	 3.0176115823	 1.2795353746	-0.054135
H	 0.3185583784	 0.2399093784	 1.2043659132	 0.078151
H	 2.341942499	 1.3273945242	 0.2130878929	 0.102393
H	 2.2326007223	 3.039685366	-1.496763215	 0.117711
H	 0.4483182676	 3.0913738364	-1.4211894355	 0.129934
H	 0.2225763484	 4.769628151	 1.8014563513	 0.126363
H	-0.6173985442	 3.6160511206	 0.6506815318	 0.134656
H	 2.0798772978	 3.0310107499	 2.1550252311	 0.103322
69.7623	177.0024	226.195	370.8171	477.0695	639.9076	686.7146	757.625	771.8322	848.9958	936.0464	962.5303	970.5588	999.131	1060.5001	1085.0841	1099.6242	1122.5489	1132.5182	1194.5812	1205.8817	1235.9365	1290.7376	1342.7798	1359.2961	1421.9605	1488.3902	1505.6841	1819.6479	2862.6921	3068.6379	3072.9446	3109.5453	3133.2243	3166.4634	3204.5141
O=CC1CN2CC12	O=C[C@H]1CN2C[C@@H]12	
InChI=1S/C5H7NO/c7-3-4-1-6-2-5(4)6/h3-5H,1-2H2	InChI=1S/C5H7NO/c7-3-4-1-6-2-5(4)6/h3-5H,1-2H2/t4-,5+,6?/m1/s1
