15
gdb 1137	5.1632	2.0099	1.89504	4.3041	57.07	-0.2696	0.015	0.2846	734.218	0.123755	-345.698757	-345.691694	-345.69075	-345.729482	26.255	
C	-0.3004170333	 1.6191499066	-0.0424945503	-0.430431
C	-0.0092439948	 0.1291501654	-0.0733138547	 0.418089
C	-1.2061661856	-0.7293945671	 0.2956172214	-0.430434
C	 0.8443113832	-0.3713618815	-1.2633070609	-0.464156
C	 1.9054641999	-0.626817274	-0.195591573	 0.443721
O	 3.0166664241	-1.0474738645	-0.1406051142	-0.32099
O	 1.1285160601	-0.1786343627	 0.8366816494	-0.273729
H	 0.597567765	 2.1977486838	-0.2759788264	 0.129357
H	-1.0750982272	 1.8701193482	-0.7742742419	 0.125824
H	-0.6548203048	 1.9201118105	 0.947814223	 0.134664
H	-2.018797187	-0.5768741143	-0.4220085492	 0.125825
H	-0.9403797755	-1.7900639533	 0.2981575874	 0.129358
H	-1.5749069176	-0.4655452509	 1.2912600265	 0.134663
H	 0.4887803749	-1.271681868	-1.767647416	 0.139122
H	 1.1250732785	 0.378329172	-2.0052456312	 0.139117
103.2416	209.9925	245.0862	318.6704	331.3812	354.002	444.1323	526.4419	532.4545	628.02	796.9072	840.1471	903.4839	953.4257	958.5786	993.9516	1017.6111	1086.2155	1094.8971	1197.6551	1248.356	1289.7073	1291.127	1407.2208	1419.3026	1457.2333	1475.6066	1483.6727	1496.44	1505.4143	1934.8469	3038.0501	3043.1149	3085.8047	3110.3054	3116.2664	3119.0185	3121.6463	3142.6672
CC1(C)CC(=O)O1	CC1(C)CC(=O)O1	
InChI=1S/C5H8O2/c1-5(2)3-4(6)7-5/h3H2,1-2H3	InChI=1S/C5H8O2/c1-5(2)3-4(6)7-5/h3H2,1-2H3
