14
gdb 4364	4.00567	1.84919	1.26621	2.808	67.96	-0.2225	0.0013	0.2238	895.13	0.1103	-378.798322	-378.791746	-378.790802	-378.828682	26.199	
N	 0.0143738014	 1.4015301721	 0.2125026317	-0.589212
C	-0.0010588161	 0.027838992	 0.0720622483	 0.378477
C	-1.2025158441	-0.6806461518	 0.0162754307	-0.308441
C	-1.1420757655	-2.0695452274	-0.0701070477	 0.453111
O	-2.3031225618	-2.7590576429	-0.1247809027	-0.42381
N	-0.0189248727	-2.78146396	-0.1073142365	-0.386588
C	 1.1252145385	-2.0856854483	-0.054339057	 0.007999
C	 1.1991562882	-0.7088948645	 0.0337386114	-0.211849
H	 0.8602538631	 1.8717421776	-0.0690560242	 0.253366
H	-0.823538704	 1.8914766858	-0.059967279	 0.25388
H	-2.1634929871	-0.1804323618	 0.0417576858	 0.092154
H	-2.0454849577	-3.6898033539	-0.1817688687	 0.294228
H	 2.0384584126	-2.6750884264	-0.0869935083	 0.105046
H	 2.159655155	-0.2075777004	 0.0768207362	 0.081637
207.4768	231.2704	326.8189	377.0601	462.1478	464.4578	499.3358	537.6346	543.3269	574.9304	679.6383	763.3362	795.6209	815.5076	857.9248	977.04	989.1757	1001.0945	1090.4722	1133.1123	1190.6386	1257.4974	1332.5518	1364.3949	1384.8908	1507.2224	1534.1666	1616.9023	1653.4077	1671.3728	3153.6895	3189.5167	3195.5029	3583.6011	3688.9951	3764.4776
NC1=CC(O)=NC=C1	Nc1cc(O)ncc1	
InChI=1S/C5H6N2O/c6-4-1-2-7-5(8)3-4/h1-3H,(H3,6,7,8)	InChI=1S/C5H6N2O/c6-4-1-2-7-5(8)3-4/h1-3H,(H3,6,7,8)
