14
gdb 4742	7.17912	1.25221	1.07333	4.4869	70.11	-0.2419	-0.0566	0.1852	1049.7503	0.107007	-382.587598	-382.580315	-382.579371	-382.619419	25.899	
C	-0.007473627	 1.5344480372	-0.0137996891	-0.501363
C	 0.0000142792	 0.037246487	 0.011452639	 0.254271
C	-0.0577013888	-0.8115963732	-1.0599796512	-0.082299
O	-0.0311335323	-2.1050206937	-0.6790294163	-0.155609
C	 0.0464947254	-2.1108864026	 0.682394258	 0.28244
C	 0.0916817277	-3.3787448036	 1.3910610878	 0.070689
O	 0.0666611153	-4.4760140797	 0.8807504442	-0.279251
C	 0.0683673672	-0.8216950147	 1.1490111451	-0.346441
H	 0.8986163818	 1.9465691456	 0.4432727936	 0.138092
H	-0.0645536404	 1.9106340684	-1.0386340673	 0.131591
H	-0.8621848557	 1.9394598464	 0.5386833535	 0.138136
H	-0.1189158173	-0.6359077555	-2.12279261	 0.146598
H	 0.1540785766	-3.2430003774	 2.4935156988	 0.07627
H	 0.1265038782	-0.5269081043	 2.1865416338	 0.126876
104.3695	112.519	173.5239	259.1604	316.4153	328.5723	480.3587	620.6868	659.3906	666.7043	784.2691	803.6714	845.1954	958.4766	992.101	1017.1288	1018.7475	1066.2378	1154.0052	1193.6159	1258.2789	1337.2756	1393.5034	1410.0577	1422.3146	1483.6306	1498.8396	1543.0823	1639.1801	1789.9469	2886.2873	3035.2884	3089.1486	3116.0514	3247.101	3265.4833
CC1=COC(C=O)=C1	Cc1coc(C=O)c1	
InChI=1S/C6H6O2/c1-5-2-6(3-7)8-4-5/h2-4H,1H3	InChI=1S/C6H6O2/c1-5-2-6(3-7)8-4-5/h2-4H,1H3
