12
gdb 876	6.98062	2.21842	1.70172	2.9043	52.81	-0.2014	0.0306	0.232	687.7705	0.092201	-356.724041	-356.71771	-356.716766	-356.753876	23.545	
N	-0.0162590242	 1.3757339997	-0.0009168797	-0.603912
C	-0.0994062495	-0.0090257295	 0.0046637171	 0.259149
C	-1.1172660118	-0.8866235045	 0.1219256555	-0.11217
N	-0.6488963606	-2.1980202804	 0.0773255762	-0.342016
C	 0.6324997767	-2.0539717478	-0.076440985	 0.454414
N	 1.5679595385	-3.0446320788	-0.2575823993	-0.585746
O	 1.0741885908	-0.783261518	-0.1298138429	-0.210843
H	 0.5147934624	 1.746942432	 0.7804885026	 0.245353
H	 0.37898393	 1.7455223607	-0.8595454591	 0.246839
H	-2.1647368528	-0.6597997634	 0.2415329283	 0.11952
H	 1.2323310641	-3.9493945938	 0.0393155855	 0.268636
H	 2.4890307564	-2.8246942761	 0.0925685208	 0.260776
177.5764	209.263	289.1126	328.8067	365.7763	480.8111	608.2908	618.6174	657.0441	747.1413	759.2407	783.2863	874.3271	938.3761	1007.2929	1089.2241	1177.4836	1203.3713	1214.8096	1289.6855	1442.3246	1598.7328	1654.3151	1672.3511	1713.2205	3267.2781	3493.8435	3558.9282	3571.5493	3679.5818
NC1=CN=C(N)O1	Nc1cnc(N)o1	
InChI=1S/C3H5N3O/c4-2-1-6-3(5)7-2/h1H,4H2,(H2,5,6)	InChI=1S/C3H5N3O/c4-2-1-6-3(5)7-2/h1H,4H2,(H2,5,6)
