11
gdb 2879	6.56897	2.12702	1.8284	2.8947	51.08	-0.2802	-0.0108	0.2693	656.5557	0.080208	-339.452428	-339.446606	-339.445662	-339.482639	20.072	
N	-0.205296397	-1.1824667209	-0.2113228085	-0.306144
C	-0.067253515	-0.0414150986	-0.0963176566	 0.278059
C	 0.0605432845	 1.4089489857	 0.0637342521	-0.041414
C	-0.4957795997	 1.9483251	 1.4264474718	-0.199309
N	 0.67425535	 2.5292966345	 2.0941127312	-0.243212
C	 1.6480213425	 2.3788651861	 1.3043759056	 0.131981
O	 1.459376264	 1.7738113063	 0.0970860326	-0.216183
H	-0.3943008817	 1.9005083828	-0.8003719965	 0.147608
H	-1.2623712285	 2.7124188439	 1.2715686146	 0.138007
H	-0.9287059507	 1.1529384746	 2.0378655549	 0.150139
H	 2.6690332716	 2.6953149054	 1.4816898187	 0.160468
67.6697	184.0161	261.2967	482.9292	511.9582	565.6423	739.5732	820.9324	882.4714	955.8068	973.7427	989.2781	1028.5882	1060.8657	1103.4501	1210.0297	1285.163	1316.3399	1332.8364	1367.1252	1497.4739	1720.1373	2364.0536	3065.2404	3078.771	3110.9082	3231.026
N#CC1CN=CO1	N#C[C@H]1CN=CO1	
InChI=1S/C4H4N2O/c5-1-4-2-6-3-7-4/h3-4H,2H2	InChI=1S/C4H4N2O/c5-1-4-2-6-3-7-4/h3-4H,2H2/t4-/m0/s1
