19
gdb 2706	13.06975	0.76781	0.75543	2.852	69.58	-0.2476	-0.0186	0.229	1499.9313	0.1695	-310.940708	-310.931691	-310.930747	-310.97521	30.512	
C	 0.0098483726	 1.6016245208	-0.0801742609	-0.380046
C	 0.0133255146	 0.0717789545	-0.0190320384	-0.166986
C	-1.3944531208	-0.5295368119	 0.0526984565	-0.155308
C	-1.3969418636	-2.0606260141	 0.1145550476	-0.191198
C	-2.8137439229	-2.6561264645	 0.197035647	-0.272938
C	-2.7940375703	-4.1658124976	 0.149571112	 0.159754
O	-3.2679402001	-4.8942220469	 0.9827939035	-0.237758
H	 1.0273595346	 2.0016404919	-0.1272868379	 0.113574
H	-0.5306771606	 1.9618377896	-0.9625979724	 0.114348
H	-0.4765168526	 2.0316937774	 0.8024214326	 0.115379
H	 0.5338821101	-0.3301459338	-0.8983210891	 0.09566
H	 0.5924313712	-0.2591873895	 0.8531183202	 0.0977
H	-1.916830842	-0.1295331344	 0.9323580307	 0.098297
H	-1.9765328343	-0.2013712814	-0.81985151	 0.094013
H	-0.8840197998	-2.4627165487	-0.7697690603	 0.100833
H	-0.815205468	-2.3937723071	 0.9836449188	 0.110633
H	-3.3318472769	-2.3407121317	 1.1075366235	 0.120576
H	-3.3992014408	-2.3066914058	-0.6665636222	 0.116198
H	-2.2788324702	-4.5851031768	-0.7481844413	 0.06727
52.5705	65.1075	110.5422	129.8417	147.4321	246.729	278.7907	334.3346	440.8721	522.9911	734.8083	758.2327	813.6326	887.5686	900.4284	976.2864	1004.9696	1040.9409	1055.0599	1071.54	1140.3723	1165.7023	1228.8234	1252.0914	1286.8309	1317.9573	1332.5376	1333.7395	1378.0066	1399.8091	1413.5277	1430.9113	1463.7702	1484.7685	1489.8779	1499.8413	1502.9359	1514.0478	1836.6962	2842.8216	3005.2058	3006.3678	3013.2049	3020.5672	3029.8566	3030.9329	3046.4758	3064.2578	3096.2246	3097.5639	3103.2969
CCCCCC=O	CCCCCC=O	
InChI=1S/C6H12O/c1-2-3-4-5-6-7/h6H,2-5H2,1H3	InChI=1S/C6H12O/c1-2-3-4-5-6-7/h6H,2-5H2,1H3
