11
gdb 894	6.84057	2.29947	1.72428	2.3767	49.46	-0.1858	0.0486	0.2344	658.0445	0.078652	-376.587741	-376.58136	-376.580416	-376.617825	23.144	
O	 0.0986692178	 1.3244673988	 0.1519999507	-0.419107
C	-0.0394538828	-0.0026716097	 0.0466818185	 0.383916
C	-1.1152344101	-0.7892648715	-0.0191616004	-0.215267
N	-0.6254117662	-2.1136465331	 0.0421052164	-0.333537
C	 0.7485177386	-2.1021807363	 0.0130571448	 0.470908
N	 1.5273395308	-3.0971193235	-0.0627887374	-0.596406
O	 1.1159997364	-0.7569703784	 0.086240109	-0.250444
H	 0.966991913	 1.5696124699	-0.1905700339	 0.313924
H	-2.161735369	-0.547954885	-0.031801316	 0.147644
H	-1.1328567571	-2.9321256849	-0.2436757556	 0.273674
H	 2.4993798286	-2.8027856662	-0.0582765561	 0.224696
138.2656	171.9383	264.3867	344.0317	385.3715	519.4983	608.4256	647.7415	688.8769	701.9031	736.1833	773.5198	927.9178	982.5885	1035.7251	1096.6433	1169.9579	1262.7598	1322.136	1385.999	1411.4058	1772.1973	1823.6702	3310.1626	3550.9778	3692.1351	3799.8043
OC1=CNC(=N)O1	OC1=CN[C@H]([NH])O1	
InChI=1S/C3H4N2O2/c4-3-5-1-2(6)7-3/h1,6H,(H2,4,5)	InChI=1S/C3H5N2O2/c4-3-5-1-2(6)7-3/h1,3-6H/t3-/m0/s1
