13
gdb 4274	4.08238	1.88513	1.29225	8.359	63.84	-0.2232	-0.0146	0.2085	865.4719	0.098344	-394.837997	-394.831301	-394.830357	-394.86876	25.444	
N	 0.0892933895	 1.4079176261	 0.1576454172	-0.588022
C	-0.0170978869	 0.0283292237	 0.0399695777	 0.422556
C	-1.1646882502	-0.6922906611	 0.0085457284	-0.306488
C	-1.1449367386	-2.1518429182	-0.0241050237	 0.382728
O	-2.1503145856	-2.8333488245	-0.0435240768	-0.369541
N	 0.144010309	-2.7690717785	-0.0486726907	-0.300953
C	 1.1832342836	-2.0262209493	-0.0216647499	 0.094615
N	 1.1836125781	-0.6517953644	 0.0127031987	-0.35147
H	 0.7757168686	 1.8334928789	-0.4533152303	 0.254793
H	-0.8012954636	 1.8789619584	 0.0778425672	 0.266983
H	-2.1275942986	-0.196897609	-0.0008311065	 0.100273
H	 2.1788638786	-2.469336206	-0.0292225542	 0.130608
H	 2.0451992162	-0.1531405761	 0.1704204029	 0.263919
126.4177	199.1941	297.7537	345.1994	414.809	485.6684	504.0936	540.4944	588.6317	628.5865	725.7224	775.7272	786.048	859.2568	905.2792	960.4405	1000.654	1104.6754	1143.7872	1218.0572	1264.9633	1393.3949	1424.7474	1515.5542	1638.4789	1661.1136	1721.1384	1776.6095	3134.4619	3209.23	3540.3423	3634.3223	3643.0774
NC1=CC(=O)N=CN1	Nc1cc(=O)nc[nH]1	
InChI=1S/C4H5N3O/c5-3-1-4(8)7-2-6-3/h1-2H,(H3,5,6,7,8)	InChI=1S/C4H5N3O/c5-3-1-4(8)7-2-6-3/h1-2H,(H3,5,6,7,8)
