14
gdb 2070	4.99993	2.68985	1.85458	4.8303	55.52	-0.2435	0.0454	0.2889	670.7463	0.115499	-361.726913	-361.720737	-361.719793	-361.757362	22.436	
N	-0.0727604608	 1.283875225	 0.3283188504	-0.541456
C	-0.0095044483	 0.086272129	-0.0646521318	 0.46768
O	 1.1754694441	-0.5602422446	-0.2538666566	-0.268631
C	 1.2484640741	-1.7869732703	-0.9912994435	-0.068504
C	 0.0338390094	-2.6584313559	-0.7280173252	-0.233532
C	-1.1909455648	-1.8020909411	-0.9956093041	-0.065105
O	-1.1593161862	-0.6057167061	-0.2146606192	-0.237522
H	 0.8698747055	 1.6500422625	 0.4447656511	 0.224435
H	 1.3282323889	-1.5533949011	-2.0624937446	 0.113157
H	 2.1814451348	-2.2599503418	-0.6763971265	 0.125358
H	 0.0427905187	-3.5344673828	-1.3840579135	 0.11586
H	 0.031076597	-3.0053189812	 0.3104944747	 0.127153
H	-1.2521390172	-1.5381187427	-2.0612910904	 0.112958
H	-2.1209349051	-2.3015021187	-0.7162203709	 0.12815
82.121	121.7746	322.1292	423.4874	480.0968	529.3251	665.5084	714.8152	789.6377	825.3901	904.3027	912.8755	934.759	989.971	1050.1286	1116.7039	1153.7759	1178.9248	1235.0355	1252.3021	1295.6204	1305.6971	1379.8212	1422.6348	1438.3335	1473.7126	1513.0371	1520.6926	1759.6001	3004.6372	3010.44	3052.5696	3099.303	3103.9987	3109.8003	3525.3885
N=C1OCCCO1	[NH][C]1OCCCO1	
InChI=1S/C4H7NO2/c5-4-6-2-1-3-7-4/h5H,1-3H2	InChI=1S/C4H7NO2/c5-4-6-2-1-3-7-4/h5H,1-3H2
