14
gdb 2525	3.43242	2.13097	1.39606	4.223	55.26	-0.2483	-0.046	0.2024	839.3759	0.10998	-361.705669	-361.697364	-361.696419	-361.739556	26.927	
C	-0.446586871	 1.3208931103	 0.2129493562	-0.319356
N	 0.0346277857	-0.057047595	 0.1711483006	-0.312896
C	 0.7170902763	-0.4110635293	-1.0596308851	-0.130577
C	 1.5745460561	-1.6558055554	-0.8269867753	 0.145141
O	 1.7803239027	-2.5082752801	-1.6452363852	-0.221003
C	-0.3022924796	-0.6941732733	-2.16677528	 0.183671
O	-0.230653863	-0.2538752773	-3.2802826786	-0.231593
H	 0.3433404481	 2.0715989218	 0.0405798053	 0.108729
H	-1.2152371651	 1.4685669542	-0.5525932154	 0.140388
H	-0.9057650616	 1.5137332311	 1.1858587293	 0.129591
H	 0.6334803157	-0.2401350955	 0.9695573258	 0.225137
H	 1.4030515124	 0.3725018278	-1.4397881977	 0.10591
H	 2.021526182	-1.7071229885	 0.1951287584	 0.081485
H	-1.1381082789	-1.3444773809	-1.8293341384	 0.095374
44.2445	75.0257	81.5071	191.7699	213.87	242.6903	356.8306	399.9623	523.7915	584.6837	732.9598	827.4479	947.1777	1034.7244	1051.8329	1078.254	1145.9782	1162.9061	1198.2213	1284.5463	1303.4419	1396.9137	1416.9327	1464.3646	1486.5262	1495.4625	1520.455	1827.0424	1858.9348	2842.3116	2904.8406	2911.7068	2964.506	3070.6491	3117.5621	3515.5895
CNC(C=O)C=O	CNC(C=O)C=O	
InChI=1S/C4H7NO2/c1-5-4(2-6)3-7/h2-5H,1H3	InChI=1S/C4H7NO2/c1-5-4(2-6)3-7/h2-5H,1H3
