12
gdb 4248	3.86792	2.09039	1.35701	4.4761	60.95	-0.2417	-0.0503	0.1913	819.4305	0.085886	-414.724166	-414.717813	-414.716869	-414.754907	23.737	
N	-0.0802965146	 1.2643331064	 0.4267645269	-0.560565
C	-0.0174572536	 0.0942446452	-0.0470539798	 0.47697
N	-1.1789291331	-0.6439051579	-0.2391737599	-0.338513
C	-1.1778935426	-1.9067097875	-0.7447426417	 0.0504
C	-0.0346028897	-2.5289692383	-1.0954623001	-0.292279
C	 1.2301140184	-1.845450996	-0.9341445387	 0.436825
O	 2.3266611498	-2.2464806882	-1.1923712359	-0.319619
O	 1.1373751855	-0.5342008578	-0.4011776339	-0.262294
H	 0.8499399773	 1.6683051697	 0.5057352745	 0.240491
H	-2.0310888006	-0.1759599333	 0.0238489547	 0.284598
H	-2.1524940183	-2.3700871683	-0.8436170497	 0.150235
H	-0.0214343084	-3.530237804	-1.4974989763	 0.133752
111.5426	141.4236	370.0303	382.3103	507.16	538.3795	549.489	559.6489	714.9156	735.8005	758.9753	803.5067	824.0808	913.6732	968.1579	979.7885	1060.3617	1096.739	1163.9042	1229.1826	1389.4606	1407.5333	1509.776	1684.5344	1762.6758	1869.807	3210.2468	3259.5285	3538.349	3658.6133
N=C1NC=CC(=O)O1	[NH][C]1NC=CC(=O)O1	
InChI=1S/C4H4N2O2/c5-4-6-2-1-3(7)8-4/h1-2H,(H2,5,6)	InChI=1S/C4H4N2O2/c5-4-6-2-1-3(7)8-4/h1-2H,(H2,5,6)
