13
gdb 97	10.13697	4.32512	3.50912	1.8995	45.45	-0.2419	0.0814	0.3233	414.1575	0.114694	-232.325947	-232.320548	-232.319604	-232.354576	18.443	
C	-0.1837112371	 1.5466890946	-0.0167112931	-0.407285
C	 0.0451338235	 0.0438672373	 0.0227049403	-0.002298
C	 1.2030110448	-0.540345796	-0.8198346406	-0.072915
O	 1.8006168649	-1.1553061522	 0.339249912	-0.271488
C	 0.8339198263	-0.5431375408	 1.216480033	-0.072915
H	 0.7510260882	 2.0925601506	 0.1534491106	 0.119979
H	-0.5831924791	 1.8615570693	-0.9869416908	 0.11908
H	-0.8984372431	 1.8591712648	 0.752441532	 0.11908
H	-0.895067357	-0.4876837173	-0.148439953	 0.081489
H	 0.9356047222	-1.2785758767	-1.5854391712	 0.099892
H	 1.8639293768	 0.2137992363	-1.2708164882	 0.093746
H	 1.2941456469	 0.2094899308	 1.8727395235	 0.093746
H	 0.3151704228	-1.2832685606	 1.8375639255	 0.099892
69.6367	232.687	323.3415	399.2241	710.4088	872.3239	892.4953	906.9832	935.3542	989.4357	1038.9283	1123.7499	1140.0079	1156.2614	1162.1951	1211.4864	1279.8507	1310.0496	1352.4623	1398.0779	1417.4373	1496.1364	1498.2734	1513.05	1537.6261	2991.4556	3002.4221	3027.7019	3043.166	3047.5295	3069.7469	3095.282	3100.0884
CC1COC1	CC1COC1	
InChI=1S/C4H8O/c1-4-2-5-3-4/h4H,2-3H2,1H3	InChI=1S/C4H8O/c1-4-2-5-3-4/h4H,2-3H2,1H3
