14
gdb 1848	6.40785	2.14526	1.63986	3.828	60.78	-0.2269	0.0032	0.2301	739.6791	0.114643	-320.79327	-320.786548	-320.785604	-320.82383	24.491	
C	-0.0123225816	 1.4811769916	 0.0226371178	-0.491603
C	-0.0056203634	-0.0105202791	-0.0390355966	 0.374332
N	-0.0555620203	-0.7067269765	-1.1101245675	-0.288117
C	-0.0250093558	-2.1128605799	-0.6914894337	-0.237351
C	 0.0528437009	-2.1162937063	 0.8338589689	 0.380195
N	 0.0982633158	-3.1368590323	 1.5881516955	-0.550581
N	 0.0592617805	-0.7557278584	 1.141382948	-0.368959
H	 0.894578979	 1.8567987197	 0.5095672857	 0.138661
H	-0.0661768078	 1.8810800525	-0.9896065551	 0.161513
H	-0.8703148529	 1.8451524164	 0.5988596324	 0.138694
H	-0.9196653939	-2.6406327761	-1.0389890989	 0.143187
H	 0.8363617704	-2.6292260098	-1.1286403724	 0.143188
H	 0.1468902277	-2.8804913898	 2.5760488409	 0.204326
H	 0.1047865714	-0.3761634421	 2.072233045	 0.252514
103.8319	151.8044	255.5473	299.0502	367.6177	470.4224	509.8779	615.9991	635.701	701.2981	852.1001	890.6797	966.5284	982.0263	983.9578	1066.1785	1066.7485	1098.7953	1184.5495	1232.0841	1289.5991	1321.5088	1401.587	1443.0161	1455.4799	1480.6997	1483.7339	1716.6328	1762.833	3038.563	3051.5244	3082.1806	3092.851	3160.8911	3448.961	3657.6256
CC1=NCC(=N)N1	CC1=NC[C]([NH])N1	
InChI=1S/C4H7N3/c1-3-6-2-4(5)7-3/h2H2,1H3,(H2,5,6,7)	InChI=1S/C4H7N3/c1-3-6-2-4(5)7-3/h2H2,1H3,(H2,5,6,7)
