14
gdb 2139	4.02165	3.20405	1.8239	3.1249	59.85	-0.2092	0.0002	0.2094	676.1181	0.114102	-324.62378	-324.617181	-324.616237	-324.654241	23.883	
C	-0.0065800471	 1.463061351	 0.0053374145	-0.352133
N	 0.0118234758	 0.0187403827	-0.0259659244	-0.073613
C	 0.0566164325	-0.7829941701	-1.1779764766	-0.010987
C	 0.0635130631	-2.0856964631	-0.8792426032	-0.151713
C	 0.0198446776	-2.2240696792	 0.6191355129	-0.389636
C	-0.0130784202	-0.7703330193	 1.1151105246	 0.407209
O	-0.0524722683	-0.3592315136	 2.254071618	-0.382487
H	 0.8936665104	 1.8849066519	-0.4560047246	 0.130138
H	-0.8864552826	 1.863353009	-0.5111902514	 0.130132
H	-0.0426884014	 1.7597319182	 1.0550871063	 0.169286
H	 0.0800554159	-0.3015682176	-2.1459884995	 0.124237
H	 0.0948843925	-2.9004649518	-1.5854998906	 0.108335
H	-0.863831315	-2.755888987	 0.9904911407	 0.145611
H	 0.8922128368	-2.7343070211	 1.0436968233	 0.145622
126.2355	157.2831	179.8224	298.5483	433.9069	483.6575	583.3036	642.1928	691.3605	718.9755	857.5622	909.1129	951.6051	975.2887	995.2844	1096.6856	1146.3508	1146.5783	1156.0535	1252.6105	1299.1075	1328.9689	1411.9321	1433.5604	1459.2885	1495.6563	1512.2119	1670.5678	1816.93	3023.0092	3045.4895	3076.2115	3076.7963	3143.3519	3228.6168	3261.0358
CN1C=CCC1=O	CN1C=CCC1=O	
InChI=1S/C5H7NO/c1-6-4-2-3-5(6)7/h2,4H,3H2,1H3	InChI=1S/C5H7NO/c1-6-4-2-3-5(6)7/h2,4H,3H2,1H3
