13
gdb 3123	5.43971	2.3682	1.93612	4.2932	56.17	-0.2476	-0.0289	0.2186	660.799	0.101102	-344.41385	-344.407777	-344.406833	-344.443793	22.266	
O	-0.0432250613	-0.0153767119	 0.0165288164	-0.262346
C	 0.0377978344	 1.181339691	-0.1006440017	 0.067867
C	 1.285513527	 1.9538695287	-0.061719892	 0.382875
C	 1.3708437257	 3.4049275745	 0.3620357966	-0.330604
C	 1.8053922039	 3.0360382044	-1.0219072521	-0.165102
C	 3.1017299564	 2.2333339291	-0.9582969995	-0.087681
O	 2.553359333	 1.3251985627	 0.0358631443	-0.301707
H	-0.8596932691	 1.8258212223	-0.2517178051	 0.070216
H	 0.4263356135	 3.9360927884	 0.4242886957	 0.132188
H	 2.099155764	 3.6534130212	 1.1284406484	 0.134637
H	 1.3400357014	 3.4271652731	-1.9162992733	 0.11981
H	 3.3264558982	 1.6944171354	-1.8842100726	 0.12414
H	 3.9964927228	 2.7529118512	-0.5978550552	 0.115708
119.9527	202.5651	259.8418	387.6216	420.6697	518.6008	715.3569	780.2649	798.2443	873.1277	934.1035	979.479	984.9349	991.308	1023.8232	1042.9354	1074.7214	1126.2764	1162.6653	1203.3724	1299.2758	1344.1457	1359.3182	1436.3674	1471.654	1517.9452	1816.3134	2857.6817	3035.8244	3089.3137	3123.023	3208.7235	3219.2628
O=CC12CC1CO2	O=C[C@]12C[C@H]1CO2	
InChI=1S/C5H6O2/c6-3-5-1-4(5)2-7-5/h3-4H,1-2H2	InChI=1S/C5H6O2/c6-3-5-1-4(5)2-7-5/h3-4H,1-2H2/t4-,5+/m0/s1
