12
gdb 2955	4.89733	2.25858	1.62341	5.2724	57.93	-0.2712	-0.0542	0.217	720.2612	0.090591	-319.533364	-319.526791	-319.525847	-319.564171	22.907	
N	 0.040085774	 1.2389291229	 0.2985079939	-0.475254
C	 0.1064122358	 0.0233173918	-0.0734391778	 0.212577
C	-1.1085376361	-0.7755566997	-0.0519859776	 0.319467
N	-2.04956387	-1.4454334709	-0.024543161	-0.31871
N	 1.2006572576	-0.6653731335	-0.5970197166	-0.086189
C	 2.5169152982	-0.6007918471	 0.0122856053	-0.23543
C	 1.736583346	-1.8789025435	 0.0040191986	-0.221808
H	 0.9587229951	 1.6837131827	 0.2348680389	 0.233184
H	 3.3464546661	-0.4632020188	-0.6742223936	 0.142359
H	 2.6051661652	-0.0739664496	 0.9600496999	 0.137305
H	 1.3064036252	-2.2087294718	 0.9458741086	 0.148375
H	 1.9908111131	-2.6706654024	-0.6933316087	 0.144123
82.348	156.7066	217.2571	285.4416	342.6621	514.607	570.1861	710.3629	730.2597	818.8034	897.4494	900.023	956.6339	1046.7292	1068.1488	1127.6205	1139.9035	1173.0026	1174.1998	1287.7841	1394.236	1494.2704	1521.6598	1686.3489	2361.637	3110.2848	3120.5043	3199.9953	3215.985	3459.9028
N=C(C#N)N1CC1	[NH][C](C#N)N1CC1	
InChI=1S/C4H5N3/c5-3-4(6)7-1-2-7/h6H,1-2H2	InChI=1S/C4H5N3/c5-3-4(6)7-1-2-7/h6H,1-2H2
