15
gdb 3335	4.22124	3.39283	2.28783	1.0772	61.38	-0.2195	0.0161	0.2356	612.3133	0.127035	-308.499978	-308.494276	-308.493332	-308.529167	22.627	
C	-0.0726878842	 1.494944824	-0.1302628145	-0.332738
C	 1.2612995588	 0.8349777766	 0.0478206358	 0.139223
O	 2.0161525291	 0.8960445962	 1.218704546	-0.258295
C	 1.3040885831	 0.7846128596	 2.4471905885	-0.124537
C	 0.2327405792	-0.2716542145	 2.4251662762	-0.098261
C	-0.3462417575	-0.6523165856	 1.2853901264	-0.045441
C	 0.0274220053	-0.0338645758	-0.0065290913	-0.113498
H	-0.5245381866	 2.0169212988	 0.705398089	 0.123882
H	-0.3029493162	 1.9156775339	-1.103360148	 0.114427
H	 1.9366006473	 0.8214917143	-0.8005606569	 0.104516
H	 2.0643186177	 0.5464145644	 3.199061415	 0.117101
H	 0.8825090752	 1.7652976245	 2.7294435271	 0.101451
H	-0.0474828992	-0.7124603034	 3.3768301842	 0.093083
H	-1.1025265796	-1.4319292324	 1.2804108234	 0.091153
H	-0.1582158324	-0.6167555307	-0.9022397008	 0.087933
169.5368	248.2835	399.7498	450.4504	542.8978	579.888	704.7834	752.2357	796.1077	819.9255	859.4079	919.0387	972.9795	982.5661	995.2626	1028.0869	1040.4701	1092.8795	1098.2796	1118.3532	1182.332	1190.9796	1241.7365	1267.9923	1355.1608	1379.8915	1416.133	1426.6279	1475.4582	1501.03	1710.3306	2943.8581	3060.5341	3133.9933	3155.1749	3165.0683	3174.8003	3184.5078	3225.1063
C1C2OCC=CC12	C1[C@H]2OCC=C[C@@H]12	
InChI=1S/C6H8O/c1-2-5-4-6(5)7-3-1/h1-2,5-6H,3-4H2	InChI=1S/C6H8O/c1-2-5-4-6(5)7-3-1/h1-2,5-6H,3-4H2/t5-,6+/m0/s1
