7
gdb 11	57.22434	10.11122	9.07368	2.5682	25.11	-0.254	-0.0198	0.2342	166.9728	0.055355	-153.787612	-153.783728	-153.782784	-153.812518	11.219	
C	-0.0029448212	 1.5099136648	 0.0086727849	-0.450261
C	 0.0260828384	 0.0032756259	-0.037459115	 0.172035
O	 0.9422880119	-0.6550703513	-0.4568257611	-0.225955
H	 0.9227880213	 1.926342418	-0.3914655687	 0.14545
H	-0.8620154031	 1.878524808	-0.5647953841	 0.143233
H	-0.1505063787	 1.8439338318	 1.0428910048	 0.143262
H	-0.8944300885	-0.4864340773	 0.3577486492	 0.072236
168.181	501.1212	773.3101	884.1529	1124.8371	1138.5323	1373.2848	1431.5273	1459.9055	1471.282	1841.2906	2861.5286	3029.6122	3089.0262	3150.4048
CC=O	CC=O	
InChI=1S/C2H4O/c1-2-3/h2H,1H3	InChI=1S/C2H4O/c1-2-3/h2H,1H3
