16
gdb 3575	4.62617	2.90209	2.41317	1.6808	63.25	-0.2031	0.0732	0.2763	629.5767	0.137288	-288.542113	-288.535809	-288.534865	-288.572309	24.486	
C	-0.0813717517	 1.626643479	-0.0500696747	-0.386642
C	 0.1407362397	 0.1175821847	 0.0316523065	-0.0084
C	 1.3895361994	-0.6978253676	-0.2157591325	-0.083592
C	 2.6774681938	-0.1670960587	 0.4744080049	-0.053775
N	 2.376392885	 1.1100692398	 1.172868011	-0.335475
C	 2.0169223136	-0.1930872078	 1.7910799292	-0.053772
C	 0.7020867667	-0.724835646	 1.1545259326	-0.083587
H	 0.6982779778	 2.121785688	-0.6304007686	 0.125859
H	-1.0456456051	 1.8281115871	-0.530288166	 0.090389
H	-0.0888064284	 2.0908037214	 0.9370083794	 0.125833
H	-0.6965630184	-0.4324545629	-0.3992243801	 0.087997
H	 1.425988337	-1.4869795271	-0.9568970242	 0.084085
H	 3.6890667172	-0.4271671763	 0.1916123314	 0.090591
H	 3.2449415222	 1.4132062066	 1.6145834172	 0.225814
H	 2.3993245415	-0.4779243545	 2.7624595648	 0.09059
H	 0.1424005399	-1.5374026356	 1.6015880992	 0.084085
63.2131	214.7787	268.6494	408.039	492.6272	671.4432	683.3677	706.7788	729.3366	812.5801	845.058	864.0555	904.2967	914.0294	940.2373	995.2042	1001.1357	1037.6145	1067.5512	1083.412	1100.3312	1125.3181	1142.7343	1198.1363	1252.6042	1260.8609	1316.9372	1347.6639	1368.2352	1419.4714	1437.9018	1488.4446	1488.6474	3036.757	3097.1844	3118.8413	3141.2184	3174.4653	3184.9955	3192.4365	3205.6916	3460.0269
CC1C2C3NC3C12	C[C@H]1[C@H]2[C@H]3N[C@H]3[C@@H]12	
InChI=1S/C6H9N/c1-2-3-4(2)6-5(3)7-6/h2-7H,1H3	InChI=1S/C6H9N/c1-2-3-4(2)6-5(3)7-6/h2-7H,1H3/t2-,3+,4-,5+,6-
