17
gdb 2295	8.03973	1.32649	1.23613	2.2394	61.2	-0.2459	0.072	0.318	991.4927	0.147341	-346.822424	-346.81463	-346.813686	-346.855315	26.717	
C	 0.0010016561	 1.4820332432	 0.0580679082	-0.385096
C	-0.1374866002	-0.0162408814	-0.1484739843	-0.04283
O	 0.8953773959	-0.4471945026	-1.0192300668	-0.247952
C	 0.8947648367	-1.8249398602	-1.2533938263	 0.097453
C	-0.0785658008	-2.3873547828	-2.3214641918	-0.094385
O	 1.0229349953	-2.9261976804	-3.0811875945	-0.273049
C	 1.9910299181	-2.2792328485	-2.2285297638	-0.099519
H	 0.9749016031	 1.7198249313	 0.4950337544	 0.128614
H	-0.084605107	 2.010123083	-0.895710563	 0.129322
H	-0.7812817304	 1.8479202695	 0.7296222904	 0.116584
H	-0.0639043398	-0.5512550498	 0.8131983654	 0.089415
H	-1.124357376	-0.256432888	-0.5765726983	 0.091769
H	 0.8719902309	-2.3833082888	-0.3065035949	 0.073579
H	-0.7815284134	-3.1679375929	-2.0088107208	 0.100772
H	-0.6169967165	-1.6014561855	-2.868453611	 0.100895
H	 2.4872809029	-1.4340351165	-2.721957026	 0.110378
H	 2.742879355	-2.9801680997	-1.8499821071	 0.10405
59.9445	85.4988	97.148	188.0544	248.5961	352.7113	416.2468	468.6187	738.0896	820.331	869.1199	878.1498	913.6378	997.769	1024.8004	1041.9779	1073.8198	1112.1932	1154.9091	1159.9552	1168.4707	1187.5712	1216.6373	1277.0044	1296.3498	1302.5569	1346.1686	1389.3353	1406.7968	1446.2363	1483.6294	1497.3522	1499.476	1525.1151	1528.4745	2959.8534	2987.3749	2997.377	3005.5016	3023.4782	3046.0639	3063.7703	3074.8642	3120.9691	3123.3793
CCOC1COC1	CCOC1COC1	
InChI=1S/C5H10O2/c1-2-7-5-3-6-4-5/h5H,2-4H2,1H3	InChI=1S/C5H10O2/c1-2-7-5-3-6-4-5/h5H,2-4H2,1H3
