11
gdb 3402	5.29245	2.46334	2.29863	3.5322	46.57	-0.272	-0.01	0.262	588.9671	0.078161	-380.373569	-380.367951	-380.367007	-380.402953	21.011	
O	 0.0124129364	 1.3786350796	-0.0271159216	-0.414324
C	-0.0434796407	 0.00283853	 0.0123334835	 0.138051
C	-0.4672990236	-0.764058419	 1.200350009	 0.017799
O	-1.4755658759	 0.01807676	 1.8988055999	-0.283956
C	-2.365115886	-0.1590872843	 0.8223486538	 0.46799
O	-3.5058439381	 0.1574597155	 0.7874198151	-0.309672
C	-1.3511293784	-0.8401638227	-0.0418497116	-0.327808
H	-0.4475696123	 1.7140539841	 0.7542295812	 0.306904
H	 0.7418493277	-0.4417718625	-0.5927601621	 0.134934
H	 0.0430171891	-1.5282072795	 1.7707173683	 0.135938
H	-1.5289579983	-1.6162686012	-0.7715002556	 0.134144
142.1806	251.3597	413.4317	424.1615	477.9732	658.3908	696.7847	743.0053	800.8453	806.1306	885.2445	931.3332	964.7294	1007.9208	1055.7556	1062.1381	1112.6855	1172.3358	1263.6373	1298.3724	1348.9764	1458.6	1953.4836	3165.3984	3214.0632	3234.2912	3765.466
OC1C2OC(=O)C12	O[C@H]1[C@H]2OC(=O)[C@@H]12	
InChI=1S/C4H4O3/c5-2-1-3(2)7-4(1)6/h1-3,5H	InChI=1S/C4H4O3/c5-2-1-3(2)7-4(1)6/h1-3,5H/t1-,2+,3-/m0/s1
