13
gdb 541	10.28968	1.73795	1.57616	3.0286	48.93	-0.27	0.0147	0.2847	745.4967	0.107385	-323.61489	-323.607894	-323.60695	-323.646631	23.021	
O	-0.0519736021	 1.4117896347	-0.0192421487	-0.417276
C	-0.0046984884	 0.0028489161	 0.037362016	-0.059148
C	-1.3968972607	-0.6074562015	 0.0136331394	-0.086562
O	-1.9882189651	-0.211239615	-1.228752218	-0.197039
C	-3.3193381936	-0.3825216719	-1.3563737867	 0.132607
N	-3.8891392752	-0.0899612956	-2.4428272471	-0.434754
H	-0.5442516213	 1.6368437143	-0.8173938963	 0.296689
H	 0.5856718945	-0.4201993138	-0.7900537247	 0.104853
H	 0.4907285504	-0.2669845619	 0.9756222387	 0.11531
H	-1.3470478342	-1.7026642091	 0.0790868107	 0.109219
H	-1.9912341996	-0.222196909	 0.8517094503	 0.115965
H	-3.7987588046	-0.7766546001	-0.4497304613	 0.088356
H	-4.8887553299	-0.267247887	-2.3706794522	 0.231781
43.4781	89.0041	169.0764	221.9594	341.7291	419.7429	528.9226	598.0873	824.2901	880.1005	904.7628	1025.3767	1045.8669	1085.1648	1132.5114	1140.6314	1231.675	1268.8918	1299.1976	1390.6833	1395.343	1424.2579	1435.9223	1496.1809	1500.4396	1749.6718	2991.851	3006.6929	3027.5759	3063.7643	3084.6291	3520.4653	3798.6892
OCCOC=N	OCCO[CH][NH]	
InChI=1S/C3H7NO2/c4-3-6-2-1-5/h3-5H,1-2H2	InChI=1S/C3H7NO2/c4-3-6-2-1-5/h3-5H,1-2H2
