10
gdb 332	5.71265	2.8187	2.00322	1.3299	49.83	-0.2708	0.0039	0.2747	588.5174	0.070081	-267.944278	-267.937674	-267.93673	-267.97414	23.408	
O	-0.0558628549	 1.4452450007	 0.0103649345	-0.389274
C	 0.0439153675	 0.0249221437	 0.0017729963	-0.218237
C	 0.6936731674	-0.4770938561	-1.2183472816	 0.327233
C	 1.2300681901	-0.8579663812	-2.2232019884	-0.452106
C	 0.7167962116	-0.4901213913	 1.2037963242	 0.327231
C	 1.2722327322	-0.8817197082	 2.194077868	-0.452104
H	 0.8428308726	 1.7953551707	 0.0036786384	 0.292002
H	-0.9978976859	-0.319975829	 0.0098632045	 0.152642
H	 1.6997338596	-1.2005831727	-3.1121765967	 0.206306
H	 1.7587012799	-1.2337949365	 3.0702281307	 0.206307
133.9351	203.6657	209.9977	300.441	360.1804	511.7314	561.7461	612.8565	643.2645	645.9516	676.0989	677.0535	856.5647	1020.7813	1046.2429	1260.1792	1308.6181	1413.8602	2237.9569	2240.6036	3034.6829	3502.3819	3503.0935	3800.3062
OC(C#C)C#C	OC(C#C)C#C	
InChI=1S/C5H4O/c1-3-5(6)4-2/h1-2,5-6H	InChI=1S/C5H4O/c1-3-5(6)4-2/h1-2,5-6H
