19
gdb 3317	5.83126	1.78524	1.61462	0.2476	70.65	-0.249	0.0901	0.3391	851.187	0.172426	-273.75898	-273.751839	-273.750894	-273.789971	27.427	
C	 0.0211674872	 1.5461252643	 0.0781969767	-0.377553
C	-0.1399647538	 0.0277595582	-0.0510385381	-0.190018
C	 0.6768409924	-0.5615904946	-1.1978336665	 0.048108
C	 2.2462327431	-0.5905442967	-1.1029083823	-0.251479
C	 2.2171395149	-2.1007897945	-1.3683369102	-0.035012
C	 1.421059809	-2.7928448826	-0.3000089742	-0.273046
C	 0.6873135276	-2.084955839	-1.407408441	-0.069057
H	 1.0662557307	 1.8200387265	 0.2596458085	 0.11693
H	-0.2986833543	 2.0573855139	-0.8369263449	 0.111346
H	-0.5744601333	 1.9428145071	 0.9062840277	 0.109905
H	 0.1460333829	-0.452009994	 0.8932603516	 0.09259
H	-1.1990378583	-0.2177551223	-0.2074982885	 0.092205
H	 0.387492347	-0.0645665673	-2.1307663889	 0.067535
H	 2.7269837592	-0.0105213098	-1.8934642971	 0.09941
H	 2.6811116208	-0.2921908068	-0.1417917028	 0.090038
H	 2.9069049743	-2.6387765681	-2.0072172929	 0.081024
H	 1.4010037132	-3.8764724129	-0.3607681068	 0.107096
H	 1.4149026941	-2.4089630896	 0.7176251211	 0.102505
H	 0.0179645732	-2.6235448918	-2.0685880914	 0.077472
99.1874	153.8505	196.5696	255.2855	359.0514	411.229	493.0056	658.9619	767.0409	783.7455	799.4246	818.6145	909.121	932.3738	950.241	976.7321	1001.2492	1009.5826	1031.9027	1064.9631	1078.5538	1087.6136	1122.2431	1139.2087	1177.226	1216.6552	1241.6492	1264.4115	1289.9827	1301.5236	1334.4311	1370.0427	1393.4152	1411.1851	1481.0312	1483.3641	1497.8726	1499.8374	1507.0226	3015.6152	3028.2285	3031.7518	3034.0118	3052.6233	3094.6781	3101.1694	3103.5158	3107.0941	3168.6555	3181.4325	3198.1988
CCC1CC2CC12	CC[C@H]1C[C@H]2C[C@@H]12	
InChI=1S/C7H12/c1-2-5-3-6-4-7(5)6/h5-7H,2-4H2,1H3	InChI=1S/C7H12/c1-2-5-3-6-4-7(5)6/h5-7H,2-4H2,1H3/t5-,6-,7-/m0/s1
