10
gdb 89	12.18399	5.1384	3.78868	2.5732	40.19	-0.263	0.0277	0.2907	352.0378	0.080558	-247.201165	-247.196699	-247.195755	-247.22841	15.51	
N	-0.0444515235	 1.2562353313	 0.3168191481	-0.534217
C	-0.0391455948	 0.0491370954	-0.0167055788	 0.443619
C	-1.087496192	-1.0416444616	-0.1148803256	-0.346091
C	 0.0986968818	-1.9075484357	-0.5822589359	-0.077579
O	 0.9964750825	-0.7630662945	-0.4402800956	-0.247304
H	 0.8893597981	 1.6648134965	 0.2491689284	 0.229374
H	-1.5432411351	-1.3223581219	 0.8357217247	 0.141617
H	-1.8691003629	-0.8571383865	-0.853259098	 0.141618
H	 0.3973975349	-2.7222735012	 0.081587209	 0.124481
H	 0.069450801	-2.2541834519	-1.6179608362	 0.124481
165.2076	447.863	494.6108	738.2068	790.999	865.8121	905.4112	955.5131	1000.9502	1025.6341	1063.4826	1158.1872	1200.0073	1224.4645	1242.1122	1364.3563	1465.2982	1521.7125	1828.9898	3065.4699	3092.1561	3119.2982	3148.2707	3476.8695
N=C1CCO1	[NH][C]1CCO1	
InChI=1S/C3H5NO/c4-3-1-2-5-3/h4H,1-2H2	InChI=1S/C3H5NO/c4-3-1-2-5-3/h4H,1-2H2
