14
gdb 4882	6.56096	1.28891	1.09182	5.0847	59.19	-0.24	0.0147	0.2547	1037.7866	0.107025	-419.734881	-419.727668	-419.726724	-419.766801	25.887	
C	 0.2606005299	 1.2977787903	-0.520629541	-0.390387
C	-0.1725178089	 0.2151654109	 0.4723171887	-0.29389
C	-1.5180483391	-0.3373835681	 0.1751083327	 0.328121
C	-2.4397708427	-0.109205884	-0.7588499896	-0.137392
O	-3.5279216541	-0.9371145442	-0.5406884089	-0.211156
C	-3.2488651227	-1.6897445989	 0.5648680101	 0.495514
O	-3.9554062869	-2.5125191203	 1.0498228777	-0.37033
O	-2.0075688302	-1.3275964702	 1.0168626244	-0.246688
H	 1.2534464216	 1.6734238662	-0.2626933568	 0.130611
H	 0.3039748218	 0.9046846031	-1.5409210534	 0.130735
H	-0.4326439988	 2.1443713481	-0.5106386657	 0.130739
H	 0.5521064318	-0.6093357557	 0.4777310528	 0.134877
H	-0.1750893178	 0.61442082	 1.4947920494	 0.134877
H	-2.492099294	 0.5581275727	-1.5995588004	 0.16437
67.9585	168.8151	173.5471	240.2384	319.2141	365.9313	566.052	598.1051	640.9049	739.4958	769.4205	785.3126	801.1265	924.8467	946.3068	1001.6449	1069.9057	1079.9215	1116.9306	1145.729	1220.9782	1278.6539	1311.7312	1391.0312	1414.153	1482.8276	1498.1649	1510.4598	1738.8082	1939.7381	3024.6461	3045.2152	3050.097	3113.1465	3125.8023	3311.5773
CCC1=COC(=O)O1	CCc1coc(=O)o1	
InChI=1S/C5H6O3/c1-2-4-3-7-5(6)8-4/h3H,2H2,1H3	InChI=1S/C5H6O3/c1-2-4-3-7-5(6)8-4/h3H,2H2,1H3
