16
gdb 2535	3.11621	2.13805	1.34454	4.7523	61.69	-0.2349	0.0324	0.2673	892.4219	0.137404	-321.949791	-321.941525	-321.940581	-321.982264	28.838	
C	 0.3308987602	 1.5799544391	 0.0701367884	-0.325444
N	 0.1187325192	 0.1389776003	 0.1063812312	-0.277821
C	 0.6498365962	-0.5153068149	 1.2901375331	-0.090763
C	 0.0781704577	-1.9470593074	 1.3879343659	-0.179026
N	-1.3798679265	-1.8739010392	 1.4863079802	-0.515654
C	 2.1216119302	-0.5669581001	 1.2419705366	 0.301663
N	 3.2759285713	-0.6139181337	 1.2261279296	-0.329714
H	 1.4013225707	 1.7952654394	-0.012076629	 0.142425
H	-0.1606995238	 1.9922864031	-0.8148876689	 0.125139
H	-0.0520469603	 2.1122939481	 0.9594110819	 0.095177
H	-0.8725311797	-0.0835545507	 0.0875566865	 0.237014
H	 0.3907846695	 0.0197684891	 2.2272658586	 0.092686
H	 0.3372132231	-2.4735083215	 0.4650235501	 0.136578
H	 0.5674710813	-2.4695362064	 2.2219404115	 0.109433
H	-1.7965404346	-2.7625164252	 1.233469242	 0.242518
H	-1.6652124646	-1.67727102	 2.4405922925	 0.235791
107.0095	128.9843	155.492	195.3308	232.3176	264.2247	297.4396	357.0394	491.6571	544.2535	587.5783	794.7098	824.2745	881.1276	960.2559	996.55	1054.5745	1085.3199	1138.5888	1168.9387	1175.9606	1237.4344	1316.9971	1330.7766	1369.0796	1415.3719	1462.7728	1484.6448	1495.4174	1496.1641	1518.4912	1659.7086	2359.8804	2884.575	2945.4286	3003.6539	3068.7855	3096.7971	3115.1865	3507.7929	3512.2476	3590.5972
CNC(CN)C#N	CN[C@@H](CN)C#N	
InChI=1S/C4H9N3/c1-7-4(2-5)3-6/h4,7H,2,5H2,1H3	InChI=1S/C4H9N3/c1-7-4(2-5)3-6/h4,7H,2,5H2,1H3/t4-/m0/s1
