15
gdb 2753	3.99528	2.43626	1.73068	1.9423	62.45	-0.2527	0.0216	0.2743	744.0195	0.123705	-308.462299	-308.454929	-308.453985	-308.49428	26.355	
C	-0.2974990193	 1.5208762406	-0.0724102318	-0.410951
C	 0.0061523609	 0.0326181696	-0.062790035	-0.037886
C	 1.3204530922	-0.4389717917	-0.720698123	-0.073813
O	 1.7784846382	-1.0544387247	 0.5016820683	-0.278151
C	 0.6089458612	-0.6093701241	 1.2323531246	-0.057086
C	 0.9243787636	 0.2708061688	 2.3464790504	 0.357022
C	 1.1732595234	 0.9957144227	 3.2729439974	-0.471097
H	 0.5551936522	 2.1018233822	 0.2903242706	 0.132635
H	-0.5330151601	 1.854999631	-1.088598524	 0.116228
H	-1.1556450368	 1.7551739015	 0.5653081208	 0.124618
H	-0.861287189	-0.5355241468	-0.407391851	 0.087123
H	 1.2247422226	-1.1681554376	-1.5335650651	 0.102807
H	 1.9887400589	 0.370379129	-1.0431742365	 0.103027
H	 0.0374809364	-1.4701892448	 1.6033778865	 0.103305
H	 1.3989770858	 1.6305141642	 4.0941088677	 0.202218
36.4247	143.8959	208.9967	221.6831	316.5077	379.4352	523.0599	552.6111	623.9955	670.4154	737.3319	819.2647	893.0273	926.0062	956.762	1008.3377	1026.9404	1099.5076	1133.6901	1155.2368	1184.9028	1246.5608	1274.793	1343.5316	1356.664	1382.0843	1416.5405	1492.2211	1494.7857	1526.7606	2230.7628	3009.2753	3015.7418	3036.4598	3054.7102	3078.6452	3102.4215	3118.0649	3502.0194
CC1COC1C#C	C[C@H]1CO[C@H]1C#C	
InChI=1S/C6H8O/c1-3-6-5(2)4-7-6/h1,5-6H,4H2,2H3	InChI=1S/C6H8O/c1-3-6-5(2)4-7-6/h1,5-6H,4H2,2H3/t5-,6-/m0/s1
