11
gdb 132	22.23659	2.16652	2.13287	1.4229	39.92	-0.2536	-0.0285	0.225	550.4469	0.089449	-268.282665	-268.276602	-268.275658	-268.312338	19.422	
O	 0.1525006816	 1.4058920342	-0.2176862395	-0.409424
C	 0.0988582722	 0.009277728	-0.0004172266	-0.063001
C	-1.3458063691	-0.5151243026	 0.1033983883	-0.282369
C	-1.3959006002	-2.0250102599	 0.1043457001	 0.152136
O	-1.7989688299	-2.7018307057	 1.0147991464	-0.23142
H	-0.1945128123	 1.8427478752	 0.5667479542	 0.287044
H	 0.5984136051	-0.4447657027	-0.863282726	 0.119962
H	 0.665374494	-0.2847269296	 0.895726038	 0.107499
H	-1.8350555889	-0.1461307803	 1.01038396	 0.114848
H	-1.8956611262	-0.1474692913	-0.7729567305	 0.128801
H	-1.0069339663	-2.4966356253	-0.8287837543	 0.075924
68.6182	111.3803	258.0448	322.2022	401.7465	524.1362	793.0198	862.6604	967.1319	1066.8032	1080.0305	1113.7071	1187.9312	1259.3873	1313.5798	1396.3154	1418.3473	1435.8992	1467.6867	1512.2767	1835.0317	2856.2912	2995.1251	3030.2292	3067.9665	3100.2487	3817.5715
OCCC=O	OCCC=O	
InChI=1S/C3H6O2/c4-2-1-3-5/h2,5H,1,3H2	InChI=1S/C3H6O2/c4-2-1-3-5/h2,5H,1,3H2
