17
gdb 2677	14.00689	0.78116	0.75371	1.4285	69.86	-0.2419	0.0575	0.2994	1496.5046	0.146553	-309.69376	-309.684636	-309.683692	-309.72965	30.404	
C	 0.0080594801	 1.5645292815	 0.0097810482	-0.362472
C	-0.0194371206	 0.0250038914	 0.0031239089	-0.312549
C	-1.3728006173	-0.5216067726	 0.013092954	 0.090458
C	-2.5026987418	-0.939470392	 0.0216966916	 0.017646
C	-3.8549464265	-1.4830031067	 0.0316366798	-0.32115
C	-3.8723084233	-3.0154691347	 0.0223352982	-0.062409
O	-5.2326074241	-3.4149534949	 0.0333037029	-0.41579
H	 1.0398528996	 1.9287042939	 0.0019877916	 0.112269
H	-0.5062245296	 1.9655580541	-0.8678011373	 0.127458
H	-0.4900720653	 1.9576215275	 0.900177645	 0.127462
H	 0.5185676569	-0.3453279314	-0.8792907575	 0.125491
H	 0.534608163	-0.3531558641	 0.8721933976	 0.125496
H	-4.4033488921	-1.1383771213	 0.917149537	 0.133526
H	-4.4206509378	-1.127484774	-0.8385511112	 0.133527
H	-3.3469588468	-3.3807171612	-0.8727207556	 0.096445
H	-3.329421047	-3.3916950996	 0.9022514282	 0.096447
H	-5.2649418671	-4.3757670056	 0.0275777784	 0.288146
8.0037	80.6848	88.1085	171.6986	186.8495	239.3053	271.7359	350.0323	400.764	471.9437	522.5611	759.4115	786.5393	795.2973	963.7069	1003.1756	1079.1265	1079.7807	1088.4188	1105.3905	1165.399	1221.5642	1238.0821	1286.1675	1303.8398	1333.5445	1351.8728	1408.1491	1454.0142	1477.339	1480.6184	1494.3898	1505.9994	1527.6959	2369.217	2982.415	3012.6848	3015.9003	3026.445	3042.0438	3043.0811	3063.0803	3115.989	3122.7935	3834.2591
CCC#CCCO	CCC#CCCO	
InChI=1S/C6H10O/c1-2-3-4-5-6-7/h7H,2,5-6H2,1H3	InChI=1S/C6H10O/c1-2-3-4-5-6-7/h7H,2,5-6H2,1H3
