16
gdb 2698	15.52552	0.89099	0.86078	3.938	62.8	-0.2722	0.0335	0.3056	1289.9834	0.13541	-325.789398	-325.781	-325.780056	-325.822834	27.958	
C	-0.106826308	 1.5185775654	 0.0119578531	-0.38573
C	-0.0146982605	 0.0028888013	 0.0023285654	-0.036129
O	-1.3292445263	-0.5278225064	 0.0118582828	-0.243432
C	-1.3623127229	-1.9313344968	 0.0041801069	-0.048908
C	-2.8411244035	-2.3392020221	 0.016076314	-0.339003
C	-3.0127168994	-3.788279475	 0.0094040784	 0.246919
N	-3.1294306175	-4.9377212622	 0.0039387701	-0.302157
H	 0.894451183	 1.9589806135	 0.0049310865	 0.120173
H	-0.6499101699	 1.8760569251	-0.8673047462	 0.12951
H	-0.6329679507	 1.8658176968	 0.9055092545	 0.129509
H	 0.5262343036	-0.3491513571	-0.8915358088	 0.093074
H	 0.5432108463	-0.3593819306	 0.8815499633	 0.093073
H	-0.8656625659	-2.3396291742	-0.8905227883	 0.109145
H	-0.8485721604	-2.3497638059	 0.8844362954	 0.109146
H	-3.3250032237	-1.9195210617	 0.9041074667	 0.162403
H	-3.3419925242	-1.90937796	-0.8575711937	 0.162405
57.2901	92.4135	105.2396	140.7478	217.2702	245.1083	389.1043	399.9398	425.0478	564.2486	794.6875	823.3552	887.053	963.7731	1045.8478	1053.6464	1092.6235	1150.8414	1166.8313	1186.1873	1232.0696	1296.7481	1300.8079	1300.9388	1389.7514	1408.9656	1450.5078	1470.7454	1483.665	1499.5242	1517.5203	1539.7338	2366.4376	2961.0587	2974.7755	2990.8791	3002.818	3047.0489	3056.7855	3099.7584	3122.3279	3124.0369
CCOCCC#N	CCOCCC#N	
InChI=1S/C5H9NO/c1-2-7-5-3-4-6/h2-3,5H2,1H3	InChI=1S/C5H9NO/c1-2-7-5-3-4-6/h2-3,5H2,1H3
