14
gdb 3487	4.95109	3.60527	3.13409	1.1491	55.48	-0.23	0.0734	0.3034	513.8613	0.11675	-324.508933	-324.504366	-324.503422	-324.536952	19.333	
C	 0.0349028429	 1.536839594	 0.0405339617	-0.182617
C	 1.5667649074	 1.6541272364	-0.0401740324	-0.075467
N	 1.9314759245	 1.025583248	 1.2828734147	-0.32795
C	 1.5250200537	-0.2392199996	 0.6163597031	-0.053632
C	 0.0823657791	-0.0022768556	-0.0052456702	 0.073201
O	 0.6197975068	-0.2304120133	-1.3455502878	-0.293336
C	 1.8446925253	 0.2594483234	-0.7984308125	 0.095146
H	-0.3429735686	 1.9604688556	 0.9720690136	 0.112224
H	-0.5053588849	 1.928240292	-0.8227906993	 0.107327
H	 2.02862615	 2.6042212637	-0.3010116091	 0.074462
H	 2.949040665	 1.0043968599	 1.3597126258	 0.216298
H	 1.7817684141	-1.205890088	 1.0458551613	 0.082699
H	-0.7954472418	-0.6013220049	 0.2273431062	 0.086141
H	 2.7424738463	 0.0974205084	-1.394729605	 0.085504
412.7816	501.6745	526.8206	687.1795	724.7988	763.967	841.7674	846.5057	849.2103	915.0809	924.4604	946.3109	956.2268	992.9624	1002.6217	1032.8879	1050.0869	1107.9031	1137.8443	1162.156	1181.3924	1205.5669	1222.2927	1268.2966	1273.3272	1313.0678	1348.5395	1352.6076	1462.5615	3083.6951	3121.5507	3137.6297	3143.0587	3148.2624	3151.5334	3450.6535
C1C2NC3C1OC23	C1[C@H]2N[C@H]3[C@@H]1O[C@@H]23	
InChI=1S/C5H7NO/c1-2-5-4(6-2)3(1)7-5/h2-6H,1H2	InChI=1S/C5H7NO/c1-2-5-4(6-2)3(1)7-5/h2-6H,1H2/t2-,3-,4+,5+/m1/s1
