12
gdb 3430	4.93307	3.20493	2.22554	4.9285	49.68	-0.2778	0.0127	0.2905	575.5021	0.092135	-360.525379	-360.520058	-360.519113	-360.55451	19.713	
O	-0.008665216	-0.0047418376	 0.0275962024	-0.332907
C	 0.0140674896	 1.1848653392	 0.0312996726	 0.454695
O	-1.1138626304	 1.9503335995	 0.1663285115	-0.229427
C	-0.8086390465	 3.3427851516	 0.0516622017	-0.107125
C	 0.710017497	 3.3972539944	 0.0305561312	-0.032695
C	 1.4359504803	 2.7658702445	 1.1515998704	-0.252183
N	 1.1812735143	 2.0090193065	-0.1067777862	-0.170378
H	-1.2325746721	 3.7261142603	-0.882445547	 0.131213
H	-1.2650754675	 3.8732619899	 0.8926597903	 0.131635
H	 1.1952340639	 4.1375030171	-0.5960328154	 0.120125
H	 2.4819290379	 2.9957932727	 1.322165939	 0.142403
H	 0.8744777795	 2.472525082	 2.0349403594	 0.144643
155.8864	242.5476	370.7431	501.8198	677.7679	725.0235	753.5997	810.4062	863.9657	876.1516	939.8971	997.3076	1055.0327	1070.8601	1100.3624	1120.9211	1138.8306	1167.4398	1224.1831	1278.4672	1381.1321	1399.6695	1507.677	1523.783	1908.7876	3047.1937	3091.8148	3119.9101	3174.8082	3216.451
O=C1OCC2CN12	O=C1OC[C@H]2CN12	
InChI=1S/C4H5NO2/c6-4-5-1-3(5)2-7-4/h3H,1-2H2	InChI=1S/C4H5NO2/c6-4-5-1-3(5)2-7-4/h3H,1-2H2/t3-,5?/m1/s1
