17
gdb 1514	8.13874	1.11934	1.01103	3.762	61.46	-0.2419	-0.007	0.2349	1151.7994	0.145356	-346.868453	-346.859501	-346.858557	-346.90291	30.121	
C	-0.0626262452	 1.5668044731	 0.0171541521	-0.386701
C	-0.0029603143	 0.0385804329	 0.0646494138	-0.156837
C	-1.3796666029	-0.6125839231	-0.0766300304	-0.292256
C	-1.3340380345	-2.1359052642	-0.1094013371	 0.37239
O	-0.3160771607	-2.7578851852	-0.2819558595	-0.278719
C	-2.683137542	-2.8240269067	 0.0906208857	-0.169431
O	-2.5530924029	-4.2044126123	-0.1215210115	-0.394025
H	 0.9351763583	 2.0035569536	 0.1220740767	 0.116729
H	-0.4815295932	 1.9202504093	-0.9319377439	 0.113072
H	-0.6873387395	 1.9695851429	 0.8226129474	 0.111457
H	 0.6477693559	-0.3432903725	-0.7279211972	 0.120961
H	 0.4526833017	-0.2903332836	 1.0056761611	 0.10737
H	-2.0577402894	-0.2886676942	 0.7253342163	 0.108897
H	-1.8630050376	-0.2835603962	-1.0092886902	 0.123647
H	-3.018600371	-2.5802931996	 1.114874093	 0.107848
H	-3.4113005214	-2.351636786	-0.5919375827	 0.103154
H	-3.4084955412	-4.6127061383	 0.0398316965	 0.292443
37.6909	67.4648	100.8483	150.5577	229.4574	246.0207	282.5397	326.1058	406.7327	472.2094	675.9241	723.1947	816.5118	861.999	899.7487	964.4994	1027.1656	1052.4643	1125.1692	1135.8455	1153.9125	1233.5982	1238.9159	1268.3241	1312.4198	1331.2539	1392.7559	1414.546	1442.497	1453.3977	1488.3523	1493.9989	1500.4798	1508.3293	1830.0187	2944.7326	2966.9637	3002.5184	3027.0777	3033.7386	3046.6865	3076.9173	3100.8382	3103.3417	3835.9391
CCCC(=O)CO	CCCC(=O)CO	
InChI=1S/C5H10O2/c1-2-3-5(7)4-6/h6H,2-4H2,1H3	InChI=1S/C5H10O2/c1-2-3-5(7)4-6/h6H,2-4H2,1H3
