17
gdb 4340	3.51111	1.90882	1.25571	1.3584	78.51	-0.2413	-0.0173	0.224	976.536	0.142921	-326.805628	-326.797683	-326.796739	-326.83941	28.444	
C	 0.0516707973	 1.4916605577	 0.046143073	-0.466608
C	 0.0474967268	-0.0144010958	-0.0187525394	 0.323632
C	 0.1147571992	-0.6944418706	-1.2374867074	-0.175629
C	 0.1070420774	-2.083671847	-1.229494735	-0.066934
C	 0.0328491952	-2.7489923572	-0.0121741194	-0.175627
C	-0.031499858	-1.9959983104	 1.1630798423	 0.323632
C	-0.1136666864	-2.6524271382	 2.5176352554	-0.466609
N	-0.0239533033	-0.6573646201	 1.1532807667	-0.364719
H	 0.1108612706	 1.9406350767	-0.9484013843	 0.114729
H	-0.8553129857	 1.8540902377	 0.5405541285	 0.138032
H	 0.9002069362	 1.8449090653	 0.6408294313	 0.138027
H	 0.1717297754	-0.1415765696	-2.1686550743	 0.092446
H	 0.1581819403	-2.640559499	-2.1598691933	 0.102394
H	 0.0245920114	-3.8324612164	 0.0326010064	 0.092447
H	 0.7321636321	-2.3458869373	 3.1413607657	 0.13803
H	-1.0232272014	-2.337320301	 3.0390272055	 0.138029
H	-0.1145141671	-3.7425307048	 2.4410352585	 0.114729
33.3182	38.028	198.7037	208.8608	278.6579	416.4683	440.5687	543.4521	560.393	570.9342	727.0148	758.6518	796.2967	908.9574	916.2679	984.3737	1000.0071	1018.2342	1050.4884	1057.2503	1061.8256	1121.0312	1182.9713	1251.4197	1290.8413	1296.0322	1406.9733	1408.9366	1444.5566	1474.0867	1475.7881	1476.0383	1499.1038	1500.3203	1621.0278	1629.447	3040.2005	3040.7598	3100.9262	3101.0744	3123.2303	3123.6469	3171.9927	3188.4618	3197.5676
CC1=CC=CC(C)=N1	Cc1cccc(C)n1	
InChI=1S/C7H9N/c1-6-4-3-5-7(2)8-6/h3-5H,1-2H3	InChI=1S/C7H9N/c1-6-4-3-5-7(2)8-6/h3-5H,1-2H3
