15
gdb 4431	3.44007	1.86453	1.22764	5.1495	64.65	-0.2052	0.0328	0.238	952.2815	0.11849	-399.873418	-399.865485	-399.86454	-399.905521	28.587	
C	 0.1024464605	 1.5472655461	-0.2237203321	-0.502954
C	-0.0151924322	 0.0731441782	-0.0628291755	 0.203849
C	-1.077016748	-0.7351165913	 0.0933432643	 0.270857
C	-2.5399192319	-0.5083740955	 0.1699521429	-0.489175
O	-0.6450424491	-2.0508820089	 0.2003341076	-0.245756
C	 0.7325345507	-2.0804119824	 0.1092327832	 0.471875
O	 1.4020804009	-3.0759310459	 0.1662695402	-0.40492
N	 1.108127983	-0.7677667903	-0.0518796232	-0.416667
H	 0.7021426311	 1.9935910102	 0.5789320579	 0.138576
H	 0.5793389944	 1.8121149529	-1.1753163353	 0.138573
H	-0.8838622817	 2.0145634178	-0.2029972184	 0.143229
H	-2.7676751304	 0.5556303849	 0.0752632503	 0.132555
H	-3.0667307731	-1.0441462751	-0.6280064894	 0.144624
H	-2.9468527019	-0.8626358149	 1.1240096152	 0.144626
H	 2.0698168176	-0.4939296959	-0.1479003876	 0.270708
142.2281	152.7353	174.0723	216.6518	256.8298	284.2971	310.0668	434.4106	561.9701	622.3269	626.1684	632.6646	765.319	819.8151	942.502	984.5992	1007.8694	1062.5104	1069.7254	1097.8502	1237.4358	1271.1507	1311.1346	1409.143	1428.1879	1438.3889	1466.9906	1476.464	1493.509	1496.8479	1762.2516	1896.1996	3023.4025	3030.532	3069.531	3079.902	3127.7502	3133.6524	3694.1009
CC1=C(C)OC(=O)N1	Cc1c(C)oc(=O)[nH]1	
InChI=1S/C5H7NO2/c1-3-4(2)8-5(7)6-3/h1-2H3,(H,6,7)	InChI=1S/C5H7NO2/c1-3-4(2)8-5(7)6-3/h1-2H3,(H,6,7)
