12
gdb 4991	3.47763	2.40331	1.42117	2.5582	58.75	-0.2388	-0.028	0.2108	784.3253	0.086312	-414.722507	-414.716309	-414.715365	-414.752657	23.727	
O	 0.0743267235	 1.383275302	-0.1153685135	-0.437852
C	 0.0582949463	 0.0292177328	-0.0646901347	 0.253268
C	-0.0294120751	-0.7446606487	-1.2091086313	-0.050124
N	-0.0468112348	-2.0861011258	-1.1726328685	-0.255293
C	 0.0252350087	-2.6432726307	 0.0278438822	 0.056979
N	 0.1131965139	-1.9990945225	 1.2004104076	-0.335247
C	 0.1285932024	-0.6830112452	 1.1427906704	 0.331883
O	 0.2160295909	 0.0386632385	 2.2821940601	-0.434808
H	 0.1426709777	 1.7167205675	 0.7879291325	 0.314176
H	-0.0871528206	-0.2625310226	-2.1814415114	 0.127283
H	 0.0124183497	-3.7282148149	 0.0748174832	 0.120501
H	 0.2563292975	-0.5928622204	 3.0139508334	 0.309234
176.4378	289.9973	312.1175	385.4454	443.8591	473.6852	527.3778	561.3309	621.5275	625.3586	793.8258	798.2554	906.8106	941.2911	983.2855	1125.6369	1177.2585	1209.1047	1288.3041	1323.5415	1350.3767	1382.0094	1473.8268	1516.0118	1632.733	1650.43	3170.455	3179.9501	3770.0086	3796.1226
OC1=CN=CN=C1O	Oc1cncnc1O	
InChI=1S/C4H4N2O2/c7-3-1-5-2-6-4(3)8/h1-2,7H,(H,5,6,8)	InChI=1S/C4H4N2O2/c7-3-1-5-2-6-4(3)8/h1-2,7H,(H,5,6,8)
