12
gdb 3967	5.24842	1.60485	1.22904	1.7744	64.54	-0.2178	-0.054	0.1638	886.0599	0.084181	-414.586179	-414.579681	-414.578737	-414.616878	24.302	
O	-0.1172283049	 1.3534294403	-0.0843614679	-0.392867
N	 0.0541336696	-0.0390271315	-0.0614740708	-0.237477
C	-1.076037813	-0.6520033734	 0.0636045329	 0.323032
C	-1.1363514949	-2.0931026012	 0.1099660491	-0.225932
C	-2.3354006097	-2.6743543325	 0.2407137955	 0.100109
O	-3.5130945876	-2.0074523681	 0.3342548072	-0.244162
N	-3.5191151601	-0.6115814512	 0.295506723	-0.068701
C	-2.3884758418	-0.0144072388	 0.1708335451	-0.006379
H	 0.7878448674	 1.6672300779	-0.1795325449	 0.312734
H	-0.2342058733	-2.6858284324	 0.0406208413	 0.128578
H	-2.5072248671	-3.7428113276	 0.2872076253	 0.147999
H	-2.4623738947	 1.0664407086	 0.1474359741	 0.163067
116.422	244.045	249.766	360.49	432.2041	455.98	481.4633	603.6302	662.1443	719.9539	806.8092	823.121	850.9212	956.2539	962.5595	989.5739	1015.4453	1033.6871	1235.8753	1290.2355	1337.8898	1365.308	1465.7728	1633.8536	1649.7684	1715.4455	3213.6231	3217.1446	3234.0259	3827.9056
ON=C1C=CON=C1	ON=c1cconc1	
InChI=1S/C4H4N2O2/c7-6-4-1-2-8-5-3-4/h1-3,7H	InChI=1S/C4H4N2O2/c7-6-4-1-2-8-5-3-4/h1-3,7H
