9
gdb 2816	4.28652	2.38236	1.67029	5.0272	48.83	-0.3308	-0.0454	0.2853	674.8434	0.054603	-338.21721	-338.211069	-338.210125	-338.247568	20.692	
N	-0.1534098504	-1.154992176	 0.0021290292	-0.299965
C	-0.0547947958	-0.0043505791	 0.012670232	 0.325051
C	 0.0226647272	 1.439446636	-0.0032213218	-0.089629
O	 0.5283526869	 2.0787196918	 1.1638900367	-0.196322
C	 1.327661555	 2.1495470702	-0.0119622669	-0.089676
C	 2.5821981981	 1.4306053016	-0.0047369344	 0.325055
N	 3.601522301	 0.8879740461	-0.0231793715	-0.29994
H	-0.8239632131	 1.9348181141	-0.474836341	 0.162716
H	 1.3666004111	 3.1267828354	-0.4895281025	 0.16271
101.1694	192.4828	256.2575	256.6015	463.3815	542.7496	597.4535	640.7893	778.9919	862.911	977.7079	987.8295	1097.4346	1126.537	1269.1584	1369.0125	1423.2785	2370.3918	2371.199	3137.0451	3145.6331
N#CC1OC1C#N	N#C[C@H]1O[C@H]1C#N	
InChI=1S/C4H2N2O/c5-1-3-4(2-6)7-3/h3-4H	InChI=1S/C4H2N2O/c5-1-3-4(2-6)7-3/h3-4H/t3-,4+
