17
gdb 4057	5.46529	1.19935	1.02149	0.9769	67.71	-0.2405	0.0094	0.2498	1108.2604	0.14201	-400.97268	-400.964706	-400.963761	-401.005024	30.081	
O	-0.1795244289	 1.3205231358	 0.2871114653	-0.396801
N	 0.0046627625	-0.0731975941	 0.1868048049	-0.229173
C	-1.0932694262	-0.6580750818	-0.078076762	 0.405676
C	-2.4685819043	-0.0350580776	-0.2289550188	-0.301546
C	-3.3931288403	-1.2272380433	-0.5416377978	-0.226897
C	-2.674228126	-2.443324176	 0.0604275409	 0.128427
O	-3.1733546161	-3.6297069302	-0.5258366598	-0.433456
C	-1.1847643832	-2.1569192461	-0.2297928225	-0.321526
H	 0.7096983978	 1.6264596433	 0.4939920024	 0.305118
H	-2.7369725008	 0.4668723864	 0.7085322	 0.129079
H	-2.4754454093	 0.7421288635	-0.9984188399	 0.130673
H	-4.4079160103	-1.1065776449	-0.1565051429	 0.105485
H	-3.4669399736	-1.3889152178	-1.622942215	 0.114881
H	-2.8319557513	-2.4546132689	 1.1514760593	 0.071726
H	-2.7565712477	-4.3802793364	-0.0914630209	 0.283997
H	-0.9862199703	-2.4494720413	-1.2700952169	 0.123358
H	-0.4809230821	-2.6931812708	 0.4112055739	 0.110979
70.7224	154.8609	209.5647	281.6191	299.0488	348.6903	383.7613	441.8397	473.8129	511.1317	576.5361	671.7991	774.86	837.4266	877.7477	930.8003	964.9139	993.6134	1001.4352	1056.0905	1108.5632	1150.5077	1174.1198	1213.5077	1245.3928	1258.9353	1272.1362	1306.2325	1324.3651	1364.4589	1401.6979	1433.7597	1465.7702	1472.6168	1503.1939	1755.5314	2964.6632	3021.2588	3042.5259	3051.8436	3088.2131	3102.0191	3111.1588	3820.9887	3821.6303
ON=C1CCC(O)C1	ON=C1CC[C@@H](O)C1	
InChI=1S/C5H9NO2/c7-5-2-1-4(3-5)6-8/h5,7-8H,1-3H2	InChI=1S/C5H9NO2/c7-5-2-1-4(3-5)6-8/h5,7-8H,1-3H2/t5-/m1/s1
