10
gdb 3915	8.6488	2.04719	1.65536	6.6041	51.08	-0.2591	-0.0554	0.2037	667.2496	0.068221	-355.496901	-355.491416	-355.490472	-355.52641	19.066	
O	-0.0427649878	-0.0380258913	-0.0006026889	-0.250487
C	 0.0076346576	 1.166266548	 0.0082315635	 0.09232
C	 1.2387936282	 1.9661530272	 0.0015967722	 0.21613
C	 1.3429604	 3.3443727578	 0.0111939457	-0.131049
N	 2.6678066671	 3.5701455582	-0.0006935661	-0.154194
N	 3.3682421755	 2.4050761551	-0.0172786146	-0.087374
N	 2.5082870293	 1.4428842616	-0.0156802817	-0.217311
H	-0.9174644271	 1.7868658461	 0.0226012467	 0.070346
H	 0.6100740917	 4.1339967431	 0.0249477189	 0.16874
H	 3.1674687055	 4.4458709341	 0.0010123643	 0.292879
129.9207	206.1902	283.2226	499.3186	593.0503	679.2316	734.9968	771.755	823.882	966.5601	1012.5271	1032.1524	1033.4886	1124.6993	1281.1638	1309.0969	1356.883	1436.7674	1489.9612	1560.9645	1816.8561	2867.8671	3282.7691	3652.2489
O=CC1=CNN=N1	O=Cc1c[nH]nn1	
InChI=1S/C3H3N3O/c7-2-3-1-4-6-5-3/h1-2H,(H,4,5,6)	InChI=1S/C3H3N3O/c7-2-3-1-4-6-5-3/h1-2H,(H,4,5,6)
