14
gdb 4358	4.05748	1.97874	1.34114	2.2126	66.22	-0.2494	-0.0269	0.2225	873.0584	0.109155	-374.983398	-374.975892	-374.974948	-375.015801	26.39	
C	-0.0264491126	 1.4787791208	 0.0205624251	-0.458262
C	 0.0090388932	-0.0216535035	 0.0180069754	 0.353958
N	 0.0461340314	-0.6294500889	-1.1810201189	-0.301467
C	 0.0739532551	-1.9590866311	-1.1160067203	 0.069743
N	 0.0704892236	-2.7071008009	-0.0195474843	-0.31048
C	 0.0356511238	-1.9899114851	 1.1187101544	 0.449061
N	 0.0461300732	-2.6716448177	 2.2829534025	-0.553202
N	 0.0011666125	-0.6458084824	 1.1926642621	-0.333677
H	 0.8591480704	 1.8715462923	-0.4888865102	 0.145422
H	-0.8960891054	 1.8309856475	-0.5428385968	 0.145004
H	-0.0655820466	 1.8618090501	 1.0402329155	 0.133789
H	 0.1016440915	-2.4938861762	-2.0642151654	 0.119489
H	-0.0069710753	-3.6743233951	 2.2631988579	 0.270707
H	-0.0577340448	-2.1685498697	 3.1458647531	 0.269915
49.7272	123.7493	178.2099	195.8985	308.3559	448.5861	449.1942	574.836	576.7862	607.0758	663.1909	813.6719	845.658	970.9835	993.079	1015.5603	1020.6221	1069.0586	1096.634	1244.2052	1302.1337	1364.0327	1397.6712	1449.4503	1475.245	1476.288	1501.4117	1580.2823	1614.4432	1646.8348	3049.6301	3108.2312	3148.3241	3158.0311	3628.3909	3768.0739
CC1=NC=NC(N)=N1	Cc1ncnc(N)n1	
InChI=1S/C4H6N4/c1-3-6-2-7-4(5)8-3/h2H,1H3,(H2,5,6,7,8)	InChI=1S/C4H6N4/c1-3-6-2-7-4(5)8-3/h2H,1H3,(H2,5,6,7,8)
