17
gdb 2300	7.62133	1.28881	1.19164	0.9669	60.68	-0.244	0.0787	0.3227	1001.811	0.148088	-346.828378	-346.820584	-346.81964	-346.861042	27.053	
O	-0.1031814177	 1.4183652086	-0.1643277491	-0.423222
C	-0.0137843545	 0.0022912778	-0.0961633601	-0.074312
C	-1.4216689308	-0.5443614459	 0.1056349808	-0.18852
C	-1.4501241639	-2.0585975775	 0.1905916596	 0.159396
C	-2.821279519	-2.7669173197	 0.1133372228	-0.298294
C	-2.2235646205	-3.4790905848	-1.1164717404	-0.057282
O	-1.0153147862	-2.6953424247	-1.0399264256	-0.294842
H	 0.7711857536	 1.7632367744	-0.3666491368	 0.285082
H	 0.4081646695	-0.4219741829	-1.0186035176	 0.10834
H	 0.6317163701	-0.3160152526	 0.7396094095	 0.080584
H	-1.8437942704	-0.1240857837	 1.0276129631	 0.103796
H	-2.0542312293	-0.2115184793	-0.7253746227	 0.105257
H	-0.8294562269	-2.4025788733	 1.0319562291	 0.069583
H	-3.0853132035	-3.4022909695	 0.9597438764	 0.10927
H	-3.6543526842	-2.0963925544	-0.1079628734	 0.111319
H	-2.0240006096	-4.550057154	-0.9812150678	 0.099494
H	-2.7462998765	-3.3360097586	-2.0693527377	 0.10435
69.5037	107.2661	108.7466	166.5694	259.0498	342.2003	386.0943	489.3937	743.7513	791.2737	824.4978	884.0113	933.4271	973.6579	995.6947	1029.7139	1057.1407	1085.7925	1110.8491	1157.5912	1173.1899	1213.8732	1219.3023	1249.9633	1259.9182	1289.6608	1314.4962	1322.7883	1367.7007	1404.7815	1461.1534	1478.7542	1490.8672	1530.2604	1533.4903	2960.7792	2984.2575	3012.8836	3014.5824	3030.0624	3054.5167	3076.6408	3079.0174	3132.9014	3830.9861
OCCC1CCO1	OCC[C@H]1CCO1	
InChI=1S/C5H10O2/c6-3-1-5-2-4-7-5/h5-6H,1-4H2	InChI=1S/C5H10O2/c6-3-1-5-2-4-7-5/h5-6H,1-4H2/t5-/m0/s1
