13
gdb 4141	3.49527	1.75005	1.41577	2.1516	58.5	-0.2482	0.0037	0.2519	864.2011	0.093564	-435.592515	-435.585356	-435.584412	-435.623896	26.671	
O	-0.0664949245	 1.3845380965	-0.0658787942	-0.396607
N	 0.0756700135	-0.0177988783	-0.0264836001	-0.309162
C	-1.0393214797	-0.5895079183	 0.0583696223	 0.542321
C	-2.5547118136	-0.4255394663	 0.0637727088	-0.103746
O	-2.5928869189	-1.5302306118	-0.9343744517	-0.309205
C	-1.5948611815	-2.0007289065	 0.0694068359	-0.069087
C	-2.605892969	-1.5551928022	 1.1577291655	 0.132024
O	-2.095439377	-1.3527747812	 2.4349221565	-0.419731
H	 0.8497515731	 1.6744103105	-0.1319580524	 0.309823
H	-3.1856681972	 0.4430102687	-0.1071626427	 0.114234
H	-1.1111905515	-2.9607946191	-0.0930886109	 0.114766
H	-3.5423602381	-2.1222438402	 1.1178121246	 0.097108
H	-2.7929284656	-1.0004583118	 2.9965707483	 0.297261
105.8907	198.5434	244.9399	277.6615	325.0501	366.6994	435.1732	509.6056	595.7417	702.724	754.8284	762.6434	859.0017	876.6543	903.807	966.0546	1016.5161	1094.2073	1127.6896	1133.0423	1157.5063	1195.1195	1233.7325	1238.5754	1286.4853	1409.695	1421.695	1837.7787	3061.6331	3162.1459	3165.072	3818.4388	3825.3521
ON=C1C2OC1C2O	ON=C1[C@H]2O[C@@H]1[C@H]2O	
InChI=1S/C4H5NO3/c6-2-3-1(5-7)4(2)8-3/h2-4,6-7H	InChI=1S/C4H5NO3/c6-2-3-1(5-7)4(2)8-3/h2-4,6-7H/t2-,3+,4-
