12
gdb 2457	6.53238	2.60058	2.15573	4.7548	49.47	-0.2547	0.0455	0.3002	592.3067	0.092029	-360.540793	-360.535441	-360.534497	-360.569796	20.538	
O	 0.0204835802	-0.0010849109	 0.0559704893	-0.379392
C	-0.023743498	 1.1919519117	-0.0291862248	 0.467646
N	-1.1372802131	 2.0051978046	-0.1275325935	-0.363064
C	-0.8007275331	 3.3904450081	-0.029771443	-0.024408
C	-0.0448207999	 3.8343410315	 1.2132677012	-0.332834
C	 0.7006753947	 3.3522608162	-0.0037636028	 0.095435
O	 1.0950023912	 1.9979885293	-0.0383712901	-0.23611
H	-2.0254980296	 1.6254417782	 0.1556205363	 0.266261
H	-1.3746520002	 4.0872699974	-0.6287860469	 0.11853
H	-0.0041071396	 4.9002682414	 1.4099798816	 0.128113
H	-0.0718788798	 3.1969399797	 2.0904746673	 0.135187
H	 1.3477675373	 3.9973805328	-0.5827787645	 0.124636
156.8787	336.3225	440.6533	484.6526	502.5161	700.6355	736.1837	765.869	799.4271	813.7837	906.7511	958.2569	990.5967	1018.6794	1065.8596	1088.2508	1135.5834	1152.0027	1195.1152	1215.4426	1376.635	1378.3225	1402.8284	1464.7947	1899.6822	3134.4571	3179.5279	3206.2667	3230.7724	3659.2852
O=C1NC2CC2O1	O=C1N[C@H]2C[C@H]2O1	
InChI=1S/C4H5NO2/c6-4-5-2-1-3(2)7-4/h2-3H,1H2,(H,5,6)	InChI=1S/C4H5NO2/c6-4-5-2-1-3(2)7-4/h2-3H,1H2,(H,5,6)/t2-,3+/m0/s1
