15
gdb 622	7.39312	2.28821	1.96985	2.1379	53.82	-0.2232	0.0695	0.2927	657.2536	0.130565	-287.644079	-287.637059	-287.636114	-287.674798	24.591	
C	 0.1238513334	 1.5506252428	-0.3933520957	-0.310933
N	 0.0363667045	 0.136145355	-0.0591854545	-0.086502
C	 1.2782533797	-0.6123368915	 0.0936206858	-0.241257
C	 0.4097992559	-0.3350251981	 1.2726452364	 0.035799
C	 0.87590004	 0.582788252	 2.379371375	-0.103009
O	 1.5225560401	-0.2342902807	 3.3456354373	-0.417715
H	 1.032180791	 2.0570771909	-0.0316743672	 0.099466
H	 0.1006376905	 1.6506324953	-1.4834048991	 0.124927
H	-0.7482716152	 2.0758312707	 0.0100234402	 0.121445
H	 1.3061044668	-1.5983387686	-0.3626759031	 0.114679
H	 2.216422744	-0.0594767918	 0.0383195188	 0.104052
H	-0.2273260847	-1.1373441677	 1.6420052847	 0.096096
H	 1.5575693488	 1.3520724996	 1.9894032326	 0.086295
H	 0.0083593028	 1.1023935495	 2.8183051637	 0.089278
H	 1.7183117924	 0.3099376126	 4.1140015352	 0.287378
76.3903	171.8274	227.6014	242.421	289.582	354.2438	443.8757	520.4956	738.7396	867.4516	904.3062	948.0175	1034.8577	1071.6543	1104.5712	1120.4386	1126.8226	1152.1504	1181.7109	1206.0583	1251.2792	1270.0673	1331.609	1401.4858	1448.8472	1472.1595	1491.5871	1503.1703	1511.2251	1526.1017	2964.7437	2977.671	3012.8885	3064.8738	3084.4285	3097.9675	3117.0324	3173.3654	3827.7467
CN1CC1CO	CN1C[C@H]1CO	
InChI=1S/C4H9NO/c1-5-2-4(5)3-6/h4,6H,2-3H2,1H3	InChI=1S/C4H9NO/c1-5-2-4(5)3-6/h4,6H,2-3H2,1H3/t4-,5?/m0/s1
