19
gdb 4113	3.16374	1.50454	1.18561	0.9309	75.38	-0.2388	0.0107	0.2495	1075.2289	0.163753	-365.019468	-365.010568	-365.009624	-365.05294	32.926	
C	-0.3263732963	 1.4876963986	-0.0727785992	-0.393591
C	 0.0196143397	 0.003783449	-0.0269292222	 0.000124
C	 1.2502168137	-0.3831239606	-0.9157607524	-0.331598
C	 2.0441977605	-0.5439820591	 0.3624235101	 0.41117
N	 3.2688853402	-0.5756017289	 0.6815095716	-0.244735
O	 4.0917028539	-0.5462823136	-0.4639830996	-0.395331
C	 0.815805257	-0.4842144021	 1.2489611383	-0.064799
C	 0.8583096825	 0.3483503778	 2.5238812451	-0.406047
H	 0.5607055702	 2.1127053652	 0.0790692204	 0.121215
H	-0.7501038055	 1.7511446605	-1.0477947927	 0.115939
H	-1.0598767246	 1.7564752032	 0.6943996647	 0.11645
H	-0.8767017705	-0.5898777972	-0.2247358164	 0.069394
H	 1.1301733852	-1.320222422	-1.468677924	 0.119931
H	 1.6184177233	 0.3790604731	-1.6083596141	 0.122805
H	 4.9736145427	-0.5532880252	-0.0771886526	 0.304346
H	 0.4963449713	-1.5053480631	 1.4955745344	 0.091429
H	 1.1753394425	 1.375732426	 2.3254079072	 0.120384
H	-0.1243563987	 0.3794318159	 3.0063535175	 0.112221
H	 1.569839703	-0.0842504275	 3.2332589639	 0.130694
49.022	150.9274	178.9304	216.1137	235.6963	266.979	313.4967	358.6024	383.5652	477.1428	505.5543	562.9208	688.7162	769.2842	803.3515	859.1476	889.0903	962.7923	984.4991	1029.269	1036.0193	1068.7792	1102.3443	1142.6369	1182.1403	1192.58	1219.3699	1260.2446	1283.5523	1347.6054	1363.8361	1402.0417	1408.6574	1416.4425	1460.7715	1487.1282	1491.6722	1501.8663	1505.6533	1781.7817	3014.9719	3028.6109	3039.0643	3051.0193	3065.1967	3095.724	3098.0875	3102.6452	3107.0224	3117.6112	3818.9132
CC1CC(=NO)C1C	C[C@H]1CC(=NO)[C@H]1C	
InChI=1S/C6H11NO/c1-4-3-6(7-8)5(4)2/h4-5,8H,3H2,1-2H3	InChI=1S/C6H11NO/c1-4-3-6(7-8)5(4)2/h4-5,8H,3H2,1-2H3/t4-,5-/m0/s1
