13
gdb 3957	7.38588	1.94221	1.59714	1.2726	55.45	-0.2399	0.025	0.2649	735.4575	0.103848	-340.646592	-340.640167	-340.639223	-340.677445	22.914	
O	 0.0576176981	 1.3029465371	 0.5102630352	-0.418341
C	-0.0243301986	 0.0084084377	-0.0742261944	-0.184234
C	-1.4451904424	-0.4536419527	 0.0028267249	 0.352301
N	-1.7308442761	-1.7290522698	 0.2558553579	-0.295288
N	-3.0759509267	-1.7850908839	 0.212424152	-0.181188
C	-3.6501402515	-0.5849842452	-0.0470105265	-0.021384
C	-2.6172151784	 0.3136309049	-0.1939568609	-0.259601
H	 0.9423307184	 1.6426829717	 0.3469861064	 0.287863
H	 0.3002072952	 0.0397330111	-1.1275086186	 0.096963
H	 0.6129641654	-0.7232243165	 0.4424017833	 0.107639
H	-3.5319096735	-2.6638555921	 0.3876135075	 0.273665
H	-4.7212141606	-0.4688782182	-0.1002204937	 0.130371
H	-2.6845584493	 1.368956936	-0.3968503929	 0.111236
49.1499	185.399	251.7112	310.6428	450.2996	500.9231	648.7676	680.3957	729.1254	774.1565	850.5648	947.4485	988.2053	1026.2027	1058.5395	1082.2564	1104.6338	1201.6482	1236.3747	1242.5255	1301.6796	1404.8659	1443.0123	1484.0612	1504.8784	1514.2694	1579.6054	2961.7799	3016.475	3258.3138	3286.5681	3679.8845	3829.6315
OCC1=NNC=C1	OCc1n[nH]cc1	
InChI=1S/C4H6N2O/c7-3-4-1-2-5-6-4/h1-2,7H,3H2,(H,5,6)	InChI=1S/C4H6N2O/c7-3-4-1-2-5-6-4/h1-2,7H,3H2,(H,5,6)
