20
gdb 2336	5.22346	1.39639	1.22988	1.2192	71.85	-0.2198	0.0846	0.3043	1048.1442	0.182492	-291.01475	-291.006271	-291.005326	-291.047664	30.688	
C	 0.0071683643	 1.5621738436	-0.0310303935	-0.380732
C	-0.1245744309	 0.0568953001	 0.2131347891	-0.160471
C	 0.9942795251	-0.5066700308	 1.1010228951	-0.199573
C	 0.9252402703	-2.0116157837	 1.2663894385	 0.028519
C	 1.5337940752	-2.6993592169	 2.4417007002	-0.265486
N	 0.0875818426	-2.698772844	 2.2551649322	-0.077743
C	-0.7114819633	-1.9384751736	 3.2029155858	-0.312196
H	 0.956313867	 1.8012291832	-0.5238800409	 0.113744
H	-0.8012317614	 1.9364840646	-0.6667102824	 0.112551
H	-0.0241787937	 2.1215035213	 0.9107994691	 0.113274
H	-1.0972522697	-0.1598577822	 0.6715771859	 0.102292
H	-0.119511637	-0.4739280895	-0.7478690465	 0.097604
H	 1.9666178038	-0.2611778909	 0.6514697991	 0.09833
H	 0.9830029507	-0.0075380025	 2.0763498163	 0.094725
H	 0.9460381232	-2.5445020911	 0.3146550023	 0.083886
H	 2.0343502236	-3.6592455417	 2.33888905	 0.109826
H	 1.9442982934	-2.0583979694	 3.2229528368	 0.099615
H	-0.2290644988	-1.0291728129	 3.5956194027	 0.098035
H	-1.6583241923	-1.6496287616	 2.7346811209	 0.121415
H	-0.942638552	-2.5835471622	 4.0570908491	 0.122386
76.7146	87.7569	151.4607	211.3187	240.8914	285.734	341.2609	361.0761	434.0662	523.5889	729.4686	756.2432	787.8127	875.7571	901.5191	938.7981	1022.5871	1038.8808	1059.7226	1086.9086	1113.2956	1134.89	1137.1908	1166.7009	1199.2773	1206.9935	1261.5361	1299.3218	1325.0307	1341.7965	1382.2742	1411.0635	1427.4891	1450.9629	1478.4277	1486.9444	1493.205	1499.7366	1504.8128	1509.5782	1517.2038	2970.6859	3013.9261	3022.3158	3028.5935	3049.5691	3060.8539	3070.2615	3077.6691	3092.249	3095.583	3097.4367	3102.1908	3164.0819
CCCC1CN1C	CCC[C@H]1CN1C	
InChI=1S/C6H13N/c1-3-4-6-5-7(6)2/h6H,3-5H2,1-2H3	InChI=1S/C6H13N/c1-3-4-6-5-7(6)2/h6H,3-5H2,1-2H3/t6-,7?/m0/s1
