15
gdb 1152	6.02667	2.05106	2.04718	1.2552	57.1	-0.251	0.0715	0.3224	680.1462	0.124842	-345.602096	-345.595662	-345.594718	-345.63177	25.692	
O	-0.074440663	 1.3207237472	 0.0188132828	-0.470503
C	 0.0203163985	-0.0552249728	-0.0031768525	 0.411426
C	 0.6614394153	-1.0045948566	 1.0624303551	-0.319764
C	 0.0358477283	-1.9086803416	-0.0241169531	 0.411428
O	 0.0845255379	-3.2859321953	 0.0351090482	-0.470505
C	-1.2207152852	-0.9767063948	-0.0050270826	-0.319748
C	 0.6486000713	-0.9644165232	-1.1073036295	-0.354546
H	 0.8162927224	 1.6871192009	 0.0164923716	 0.284262
H	 1.753214078	-1.0106978693	 1.1285272964	 0.08745
H	 0.1879220664	-1.0252061037	 2.0469091355	 0.097016
H	-0.3641896066	-3.6398545134	-0.7401655529	 0.284262
H	-1.8229854426	-0.9865270619	 0.9065707449	 0.097009
H	-1.8376775979	-0.9571687087	-0.9079941993	 0.087453
H	 0.1602280922	-0.948363474	-2.0859147937	 0.08738
H	 1.7392699251	-0.9634397929	-1.1903053009	 0.087379
242.6681	246.2898	293.341	316.8191	438.4557	443.6218	552.4049	561.6685	614.6426	659.7962	744.6232	755.2199	944.0403	955.4586	965.2094	1039.919	1051.3696	1101.5299	1105.0555	1120.3054	1123.7751	1129.4527	1155.6905	1174.3726	1297.4531	1309.0669	1376.0452	1402.3158	1487.4294	1493.5464	1569.2602	3041.8577	3048.6363	3057.5288	3112.3816	3121.7783	3124.8247	3810.6943	3810.8134
OC12CC(O)(C1)C2	O[C@@]12C[C@@](O)(C1)C2	
InChI=1S/C5H8O2/c6-4-1-5(7,2-4)3-4/h6-7H,1-3H2	InChI=1S/C5H8O2/c6-4-1-5(7,2-4)3-4/h6-7H,1-3H2/t4-,5+
