10
gdb 3821	9.40373	2.01241	1.65766	6.3841	54.8	-0.2731	-0.0307	0.2425	669.9655	0.070062	-318.391203	-318.385899	-318.384955	-318.420308	19.142	
N	-0.0019970127	-1.1353278806	-0.0037005573	-0.335979
C	-0.0244735699	 0.0214131611	 0.0031710031	 0.24144
C	 0.0017448714	 1.4442563227	 0.0108613512	 0.246701
N	-1.1330799396	 2.1554797218	 0.0295580559	-0.270056
N	-0.714842252	 3.4234267649	 0.0313309491	-0.171908
C	 0.6365755265	 3.5553733598	 0.0146020667	-0.011424
C	 1.1472484112	 2.2785064081	 0.0007767423	-0.276986
H	-1.4050820224	 4.1566251311	 0.044424479	 0.290785
H	 1.1140959911	 4.5218521922	 0.013901534	 0.152593
H	 2.1808438165	 1.9772031389	-0.014286314	 0.134834
182.1903	183.3978	513.105	567.5091	574.0598	581.9467	670.126	728.3597	780.7976	865.2886	947.7887	991.6734	1080.4092	1108.8938	1221.6043	1299.0904	1380.303	1458.1735	1478.925	1556.0952	2358.955	3269.5556	3291.4374	3664.0931
N#CC1=NNC=C1	N#Cc1n[nH]cc1	
InChI=1S/C4H3N3/c5-3-4-1-2-6-7-4/h1-2H,(H,6,7)	InChI=1S/C4H3N3/c5-3-4-1-2-6-7-4/h1-2H,(H,6,7)
