14
gdb 2095	5.03136	2.50139	1.76859	2.5699	53.87	-0.2494	0.0238	0.2733	681.2488	0.115197	-361.717469	-361.711126	-361.710182	-361.747585	23.335	
O	-0.0611517972	 1.4297027924	 0.0442560978	-0.420901
C	 0.0244026844	 0.0154686058	 0.0033396432	 0.059539
C	 0.7455059694	-0.5252548503	 1.2393483738	-0.096064
O	 0.7088828648	-1.9576377247	 1.2777417896	-0.223454
C	-0.4542046831	-2.5165773003	 0.8543828219	 0.134719
N	-1.4503581318	-1.9767326767	 0.2965639859	-0.271784
C	-1.3939589052	-0.5492959979	-0.0078439878	-0.152601
H	 0.8040914342	 1.7969278149	-0.1629037977	 0.288509
H	 0.5566335888	-0.3272623972	-0.8968494946	 0.083714
H	 1.803337076	-0.2472963543	 1.2527769471	 0.108823
H	 0.2667333765	-0.1217077271	 2.1404660858	 0.121259
H	-0.4403271371	-3.5855294035	 1.0584493112	 0.125621
H	-1.9995978073	 0.004216676	 0.7214223887	 0.124908
H	-1.8604709922	-0.3853011971	-0.9843723549	 0.117713
147.2349	184.1271	264.973	333.2798	449.0629	473.3749	496.5197	519.8007	796.9217	899.4815	931.8785	959.5522	981.4267	992.8457	1089.7112	1110.0934	1130.2001	1168.3739	1214.8147	1241.7086	1303.7584	1339.5562	1351.2892	1396.6553	1406.7989	1442.5252	1486.3565	1510.7784	1740.7461	2989.8748	3027.864	3035.6164	3075.0736	3093.6175	3162.3353	3817.5846
OC1COC=NC1	O[C@H]1COC=NC1	
InChI=1S/C4H7NO2/c6-4-1-5-3-7-2-4/h3-4,6H,1-2H2	InChI=1S/C4H7NO2/c6-4-1-5-3-7-2-4/h3-4,6H,1-2H2/t4-/m1/s1
