12
gdb 3749	7.43829	2.21865	1.72754	3.0677	51.91	-0.2323	0.0118	0.2441	682.1995	0.092289	-356.723059	-356.716928	-356.715984	-356.753048	21.817	
C	-0.0214300806	 1.4109468474	 0.0379590789	-0.317551
N	 0.0079022849	-0.0326430904	-0.0023071431	 0.059732
C	-0.1685655656	-0.8656821001	-1.0393160981	 0.013543
N	-0.0617754804	-2.1269087895	-0.649694636	-0.364196
C	 0.1881024997	-1.9894268385	 0.6787226917	 0.435414
O	 0.3698980372	-3.0391170367	 1.4901525565	-0.406296
N	 0.2435006935	-0.7500868307	 1.1357525525	-0.329215
H	 0.9401464312	 1.7982482417	 0.3847532231	 0.155993
H	-0.2224316481	 1.7856573226	-0.9674379239	 0.141732
H	-0.806271111	 1.7534994866	 0.7173164304	 0.155979
H	-0.3689560069	-0.521570932	-2.0430859255	 0.143845
H	 0.2851331161	-3.8273055402	 0.9402954735	 0.31102
116.1615	180.0858	303.3526	352.4082	414.3908	488.3585	635.0001	649.9184	769.6647	789.1749	844.8865	1023.0483	1053.4872	1083.5512	1154.6502	1204.1068	1242.228	1329.0473	1390.119	1454.0339	1470.6674	1477.5354	1519.9134	1540.4963	1639.1777	3051.4229	3120.4991	3145.039	3253.99	3813.8773
CN1C=NC(O)=N1	Cn1cnc(O)n1	
InChI=1S/C3H5N3O/c1-6-2-4-3(7)5-6/h2H,1H3,(H,5,7)	InChI=1S/C3H5N3O/c1-6-2-4-3(7)5-6/h2H,1H3,(H,5,7)
