13
gdb 2854	6.32084	1.46294	1.2973	1.2588	51.79	-0.2671	-0.0473	0.2198	875.7086	0.099656	-381.563295	-381.556022	-381.555077	-381.595276	24.878	
O	-0.1018586001	 1.3865379428	-0.6458832816	-0.410737
C	 0.1171891116	 0.060213132	-0.2027521706	-0.090468
C	-1.1621804397	-0.5444505662	 0.3248791838	 0.043299
O	-2.0803696362	-1.0510457174	-0.640398794	-0.247274
C	-1.5057806314	-1.9878166482	 0.2774157191	-0.049154
C	-0.5826735789	-3.0079707881	-0.3097741342	 0.136793
O	-0.3170804353	-4.0449932999	 0.2412722662	-0.239536
H	-0.7343315756	 1.3480115029	-1.371968293	 0.295668
H	 0.5416093375	-0.5695038634	-0.9964541219	 0.099406
H	 0.8526888463	 0.1240530551	 0.6061823456	 0.127521
H	-1.6335519958	 0.0372254134	 1.1189905809	 0.117287
H	-2.1749234651	-2.3773193133	 1.04355871	 0.122764
H	-0.1724585772	-2.7403380998	-1.3069696404	 0.094431
73.586	89.6872	181.8769	262.7756	329.229	379.2056	453.399	463.7305	547.308	811.4515	861.5153	944.2688	978.7412	1039.3014	1070.3411	1090.43	1135.2392	1165.0047	1230.6557	1270.8987	1332.0834	1368.2809	1403.2066	1423.1766	1473.4438	1488.9056	1825.5414	2907.1181	3016.5624	3080.8726	3106.6721	3134.0604	3805.5457
OCC1OC1C=O	OC[C@H]1O[C@H]1C=O	
InChI=1S/C4H6O3/c5-1-3-4(2-6)7-3/h1,3-4,6H,2H2	InChI=1S/C4H6O3/c5-1-3-4(2-6)7-3/h1,3-4,6H,2H2/t3-,4+/m0/s1
