13
gdb 643	8.1915	3.01004	2.71509	1.9279	49.82	-0.2449	0.0588	0.3037	513.7183	0.108945	-286.43116	-286.425701	-286.424756	-286.460065	19.776	
C	 0.0553053609	 1.5339434989	-0.0031794866	-0.300322
N	 1.2602841113	 0.6752570336	 0.0450100426	-0.350394
C	-0.0562774085	 0.0637414351	 0.0081115122	 0.29244
C	-0.6042891515	-0.9064282254	 1.0484648956	-0.123656
O	-1.1832839099	-1.7203485078	 0.0002122244	-0.275196
C	-0.6491760946	-0.8757367623	-1.0398035333	-0.140417
H	-0.1319079325	 2.1059255614	 0.9019270523	 0.124321
H	-0.1823050199	 2.0566943528	-0.9269617269	 0.115498
H	 1.7013358922	 0.6298024325	-0.8710965165	 0.232609
H	 0.1616352857	-1.4448242555	 1.6201221277	 0.111953
H	-1.3671824591	-0.5143627509	 1.7320803669	 0.105738
H	-1.4360283073	-0.4607394308	-1.6829814102	 0.106041
H	 0.0857897531	-1.4032382416	-1.6648271883	 0.101385
105.3324	290.159	340.3251	373.3893	556.41	815.3713	866.0408	883.5372	929.1595	936.1223	980.1214	1016.759	1027.359	1052.4229	1116.6239	1137.5244	1146.1942	1161.9204	1261.6635	1278.9072	1310.119	1343.555	1446.2698	1503.4035	1521.4668	1529.5203	2992.9357	3017.9216	3040.0051	3063.9364	3101.3275	3186.1127	3489.3869
C1NC11COC1	C1NC21COC2	
InChI=1S/C4H7NO/c1-4(5-1)2-6-3-4/h5H,1-3H2	InChI=1S/C4H7NO/c1-4(5-1)2-6-3-4/h5H,1-3H2
