12
gdb 202	9.00788	3.50963	2.56569	3.3147	51.32	-0.2157	0.0376	0.2533	500.6403	0.098598	-265.457424	-265.451994	-265.45105	-265.486153	19.536	
C	 0.0124243057	 1.4993421387	 0.037420275	-0.484714
C	 0.0277784975	 0.0065666317	-0.0288981041	 0.292375
C	-0.1409468436	-0.8036621126	-1.1226441398	-0.182618
N	-0.0387001948	-2.0954273674	-0.6485884606	-0.22838
C	 0.184178601	-2.011215083	 0.6920029293	 0.012012
N	 0.2302272436	-0.7648823277	 1.0990242066	-0.300132
H	 0.9626545896	 1.8865050452	 0.4207498428	 0.132046
H	-0.1605571392	 1.9359461193	-0.9500893396	 0.114067
H	-0.7740553877	 1.8557245343	 0.7113701151	 0.132047
H	-0.3188525548	-0.5915778791	-2.1638940933	 0.122865
H	-0.1149362584	-2.937629953	-1.1929350096	 0.264442
H	 0.303455901	-2.8872016464	 1.3123989982	 0.125992
107.6549	268.1881	335.6499	502.7879	654.0611	664.6811	691.4627	724.8093	817.872	949.8804	972.7803	1003.0458	1065.684	1095.3693	1134.9337	1247.6957	1289.9697	1348.6608	1416.0632	1456.4903	1476.0555	1491.6741	1528.9505	1606.5159	3034.2302	3088.5749	3114.5647	3248.2252	3272.1795	3670.6262
CC1=CNC=N1	Cc1c[nH]cn1	
InChI=1S/C4H6N2/c1-4-2-5-3-6-4/h2-3H,1H3,(H,5,6)	InChI=1S/C4H6N2/c1-4-2-5-3-6-4/h2-3H,1H3,(H,5,6)
