15
gdb 3440	4.47406	2.93763	2.13806	1.7197	60.86	-0.2338	0.0081	0.2419	636.5156	0.126687	-308.50658	-308.500593	-308.499648	-308.53603	23.716	
O	 0.1539410722	 1.4022827968	-0.2195024073	-0.432039
C	 0.0343613811	-0.0026925354	-0.0351189252	 0.092283
C	 0.6649007499	-0.5161770908	 1.2520237631	-0.128621
C	-0.1661279262	-1.2963023507	 1.944559257	-0.07347
C	-1.5049982342	-1.3978947364	 1.284409529	-0.070474
C	-2.2601682197	-0.0845954362	 1.2101043506	-0.289477
C	-1.4020452769	-0.5330756624	 0.0485944732	-0.060599
H	-0.3460370421	 1.8259276965	 0.4871447212	 0.275
H	 0.5414196492	-0.4258580469	-0.9114151367	 0.092674
H	 1.6674750621	-0.2252634972	 1.5434524687	 0.099043
H	 0.0554932809	-1.7735851908	 2.8930189448	 0.098667
H	-2.0592808544	-2.3292135384	 1.2993084057	 0.090225
H	-3.3342187005	-0.1210553545	 1.0604240082	 0.114135
H	-1.9240002719	 0.7220042895	 1.8554137279	 0.103648
H	-1.9075523495	-0.802444303	-0.8703290401	 0.089003
169.6031	239.9898	321.2135	399.4005	466.4156	567.0035	682.4948	745.3956	769.7528	805.9736	830.636	895.9747	939.9059	954.1532	984.6392	1007.7914	1052.5701	1067.9801	1075.9016	1088.6939	1103.0995	1140.2216	1197.6111	1261.2792	1297.933	1310.5545	1365.9123	1378.6749	1426.6631	1479.5869	1669.8654	3029.4756	3118.3629	3173.5932	3184.9512	3187.5593	3208.056	3212.3466	3797.7417
OC1C=CC2CC12	O[C@H]1C=C[C@H]2C[C@@H]12	
InChI=1S/C6H8O/c7-6-2-1-4-3-5(4)6/h1-2,4-7H,3H2	InChI=1S/C6H8O/c7-6-2-1-4-3-5(4)6/h1-2,4-7H,3H2/t4-,5+,6-/m0/s1
