13
gdb 627	7.41334	2.70699	2.32818	2.4621	50.98	-0.257	-0.0237	0.2334	575.1919	0.107728	-286.486509	-286.480161	-286.479216	-286.51658	21.929	
C	-0.367965326	 1.4761879546	 0.0820760098	-0.484604
C	 0.170434816	 0.0684149105	-0.0461920194	 0.3881
O	 0.5601834571	-0.5744365695	 0.9075028707	-0.327727
C	 0.2025872349	-0.5198421743	-1.4244117011	-0.099254
C	 1.489626128	-1.1740306943	-1.8321497186	-0.216662
N	 0.3179991308	-1.9815269657	-1.5296992985	-0.300931
H	 0.1555027581	 2.150789811	-0.6046875142	 0.143038
H	-1.4267869759	 1.4944429049	-0.2021585541	 0.14794
H	-0.2598545094	 1.8276954446	 1.1084155944	 0.14607
H	-0.4075707854	-0.0392561156	-2.1835642871	 0.097351
H	 1.782567029	-1.1431890252	-2.8776648456	 0.126373
H	 2.3022156111	-1.1437103141	-1.1115299219	 0.132327
H	 0.4071885418	-2.3304587872	-0.5739270645	 0.247979
94.8724	128.5362	252.5794	262.4788	379.4453	597.4	612.86	773.644	845.5791	896.0761	957.1454	964.2154	1005.3119	1059.4393	1115.4376	1131.7582	1181.2553	1199.705	1292.9797	1321.4668	1377.9225	1403.3323	1462.7476	1473.2654	1494.6381	1789.4804	3035.1406	3094.8289	3111.6099	3153.8628	3156.594	3205.3011	3456.1944
CC(=O)C1CN1	CC(=O)[C@H]1CN1	
InChI=1S/C4H7NO/c1-3(6)4-2-5-4/h4-5H,2H2,1H3	InChI=1S/C4H7NO/c1-3(6)4-2-5-4/h4-5H,2H2,1H3/t4-/m1/s1
