17
gdb 1917	5.64156	2.16526	1.87881	1.5149	64.44	-0.227	0.0916	0.3186	748.243	0.147393	-309.688569	-309.681458	-309.680514	-309.719077	27.168	
C	-0.0831699231	 1.5252361324	-0.013653185	-0.406759
C	 0.1176365983	 0.0264560674	 0.0780648017	 0.154798
O	 1.1764001926	-0.4761790857	-0.7938378215	-0.343254
C	 1.756566818	-1.2048325958	 0.3010024589	 0.482314
C	 2.2641119079	-2.5807629103	 0.0198239996	-0.487006
C	 2.2550234941	-0.2435874572	 1.3348239271	-0.3359
C	 0.7811894166	-0.6136854245	 1.2968889429	-0.198439
H	 0.8154569217	 2.0708805779	 0.2857503127	 0.120839
H	-0.3309110678	 1.8112234877	-1.0409470755	 0.126803
H	-0.910618963	 1.8344552234	 0.6341904159	 0.115909
H	-0.8162908509	-0.4954417371	-0.1707882599	 0.078024
H	 3.1106352202	-2.5426923437	-0.6754481614	 0.131175
H	 2.6064635559	-3.0599490913	 0.9416086129	 0.121149
H	 1.4844365697	-3.2030918833	-0.4306712493	 0.125926
H	 2.7988646617	-0.6859461686	 2.164175966	 0.109875
H	 2.5980193117	 0.7434799107	 1.0384145293	 0.111256
H	 0.2662003762	-1.0648165319	 2.1348231554	 0.093288
161.3709	197.4108	218.7047	229.9599	334.8531	366.2027	470.4118	527.1118	640.6113	702.0302	813.8983	850.879	871.6436	923.752	964.8501	979.248	999.1919	1025.2235	1062.8729	1088.5511	1114.0424	1116.8646	1150.5539	1210.0382	1283.0189	1312.9157	1378.8341	1389.2362	1409.7372	1428.2505	1473.9384	1483.9712	1490.1419	1494.8665	1503.8518	3009.537	3031.5631	3037.9338	3094.348	3105.0715	3113.9255	3115.8868	3122.1351	3193.5466	3205.2622
CC1OC2(C)CC12	C[C@H]1O[C@@]2(C)C[C@@H]12	
InChI=1S/C6H10O/c1-4-5-3-6(5,2)7-4/h4-5H,3H2,1-2H3	InChI=1S/C6H10O/c1-4-5-3-6(5,2)7-4/h4-5H,3H2,1-2H3/t4-,5+,6+/m1/s1
