9
gdb 92	12.44643	5.23328	3.86599	3.9339	35.4	-0.2788	0.0089	0.2878	336.0792	0.068574	-267.106213	-267.101929	-267.100985	-267.13332	14.483	
O	 0.0442400375	 0.0393324275	-0.3307110378	-0.308076
C	-0.0485447886	 1.1741622957	 0.0041007598	 0.452632
C	-1.1421165626	 2.2361184973	 0.1533836123	-0.400942
C	 0.0233253779	 3.123570104	 0.616816249	-0.072585
O	 0.956638079	 2.0119012233	 0.4260374555	-0.231459
H	-1.625737546	 2.5148221164	-0.7840110201	 0.149267
H	-1.9000921282	 1.9955338646	 0.9002866319	 0.149263
H	 0.2836807678	 3.9617275088	-0.032292867	 0.13095
H	 0.0078225032	 3.4394265524	 1.6616272464	 0.13095
186.4415	492.4289	522.5325	755.5317	797.4928	894.59	950.9078	1016.9398	1060.0299	1111.1783	1158.526	1199.2829	1222.5535	1349.4589	1455.9328	1522.4504	1946.1429	3077.307	3094.1205	3132.5251	3153.9726
O=C1CCO1	O=C1CCO1	
InChI=1S/C3H4O2/c4-3-1-2-5-3/h1-2H2	InChI=1S/C3H4O2/c4-3-1-2-5-3/h1-2H2
