13
gdb 3655	3.52739	3.48847	1.79299	4.1512	56.29	-0.2563	-0.03	0.2263	681.7208	0.100671	-340.632285	-340.62535	-340.624406	-340.663589	23.796	
C	 0.0983620413	 1.5307622122	 0.0496703746	-0.492098
C	-0.0373956112	 0.0567133521	-0.083562086	 0.329136
C	-1.0973139046	-0.8013667075	-0.0426370176	 0.169064
C	-2.5558607203	-0.5654635611	 0.1570332948	-0.493656
N	-0.5761352964	-2.065782874	-0.2336277773	-0.165474
N	 0.6705331883	-2.0262852604	-0.3800726979	-0.017168
O	 1.0739295279	-0.658106058	-0.2901197176	-0.21292
H	 0.74909846	 1.7876914719	 0.8916509382	 0.15708
H	 0.5400720451	 1.9646994773	-0.8530941413	 0.157076
H	-0.8776156909	 1.9914356785	 0.2133269091	 0.143968
H	-3.1340441787	-0.9202856646	-0.7020109786	 0.148097
H	-2.9239467145	-1.0959262084	 1.0409267603	 0.148082
H	-2.7652070259	 0.498767852	 0.2895462092	 0.128813
69.3296	110.2717	233.2074	248.7179	294.5855	396.6738	642.2991	664.8371	667.9927	707.7356	720.4421	974.364	1013.6609	1029.3737	1061.2325	1072.1748	1205.1998	1240.73	1377.9346	1421.1864	1424.886	1466.9352	1473.8119	1477.1513	1485.9549	1494.0604	1662.6758	3042.9773	3044.9064	3100.4027	3102.7815	3124.3909	3136.6884
CC1=C(C)N=NO1	Cc1c(C)nno1	
InChI=1S/C4H6N2O/c1-3-4(2)7-6-5-3/h1-2H3	InChI=1S/C4H6N2O/c1-3-4(2)7-6-5-3/h1-2H3
