19
gdb 1892	5.34368	1.86376	1.52908	1.5746	67.48	-0.2369	0.085	0.3219	868.0234	0.172026	-310.938181	-310.9305	-310.929556	-310.970011	28.351	
C	-0.5536148002	 1.4428783126	-0.0158633689	-0.412846
C	 0.1443179415	 0.0854918455	 0.0005845636	 0.01658
C	 1.1801693416	-0.1067091414	-1.1198962784	-0.065082
O	 2.13464046	-1.0534294772	-0.6507158258	-0.279324
C	 1.9323570908	-1.3190349998	 0.7451487687	 0.159167
C	 3.2839788426	-1.406864081	 1.4372319803	-0.396223
C	 1.0038750128	-0.2044940193	 1.240404282	-0.235043
H	 0.1721688291	 2.2576832789	 0.0878413994	 0.116051
H	-1.0993802994	 1.5993976186	-0.9526988437	 0.116297
H	-1.2741106051	 1.5300992471	 0.8037421937	 0.116525
H	-0.6115945755	-0.7060022659	-0.0875052987	 0.076876
H	 0.733096445	-0.475078085	-2.0513344038	 0.096828
H	 1.6850114878	 0.8463073502	-1.3459404567	 0.084902
H	 1.4171215859	-2.2895363397	 0.842353612	 0.063372
H	 3.813650128	-0.4514374763	 1.3672054202	 0.115572
H	 3.1601234705	-1.6621514099	 2.4950093417	 0.109436
H	 3.9040196569	-2.1769178393	 0.9695794899	 0.124108
H	 1.5915488686	 0.6836014016	 1.5079325113	 0.094897
H	 0.4197005893	-0.4985139895	 2.1167382531	 0.097907
66.3693	128.2762	223.2408	231.8469	272.5027	352.833	423.4811	453.0065	534.4007	646.8852	831.1539	861.5842	885.1424	912.3611	944.7286	966.8828	1000.7007	1047.3559	1077.127	1132.6447	1150.8699	1167.6391	1185.4827	1204.8347	1261.543	1280.976	1336.5958	1357.3116	1366.2497	1393.8713	1404.8896	1412.9131	1413.7541	1484.5078	1488.2001	1497.0236	1497.7035	1499.8302	1530.7206	2952.7408	2972.4634	3012.7264	3025.1607	3029.0857	3036.2063	3043.9537	3091.8859	3095.6295	3099.4756	3108.1964	3115.5326
CC1COC(C)C1	C[C@H]1CO[C@@H](C)C1	
InChI=1S/C6H12O/c1-5-3-6(2)7-4-5/h5-6H,3-4H2,1-2H3	InChI=1S/C6H12O/c1-5-3-6(2)7-4-5/h5-6H,3-4H2,1-2H3/t5-,6+/m1/s1
