14
gdb 1909	5.86536	2.25478	1.97308	4.1201	57.82	-0.2458	-0.0083	0.2375	677.1084	0.112973	-324.564634	-324.558215	-324.557271	-324.594681	24.059	
C	 0.0112579335	 1.5469448581	 0.0493543541	-0.484528
C	-0.0398966275	 0.0519242563	-0.030653926	 0.344842
C	-0.8602504497	-0.8015423722	 0.8374766275	-0.281856
N	 0.627139876	-0.8321529947	 1.0465890548	-0.20504
C	 1.1366615733	-1.6602675198	-0.0334102924	 0.412725
O	 1.8471257777	-2.6131708845	 0.0279925225	-0.29408
C	 0.5630864084	-0.7875993127	-1.1626831747	-0.43295
H	 1.0061853417	 1.921486603	-0.2120731856	 0.131865
H	-0.7105574916	 1.9944066318	-0.6433190354	 0.130458
H	-0.2289058865	 1.8909495808	 1.0590303838	 0.137233
H	-1.3737332896	-0.3426220607	 1.6762605524	 0.137444
H	-1.3450298205	-1.6926912652	 0.44530899	 0.130779
H	-0.1214557685	-1.2587251954	-1.8727629251	 0.131679
H	 1.3613906231	-0.2830537546	-1.7140009759	 0.141428
123.3236	188.7001	291.3684	349.8046	398.7589	497.3899	566.8791	618.9862	649.4321	735.8355	834.0045	924.887	948.5474	987.9369	1015.1459	1030.4153	1066.8981	1126.3388	1130.2621	1166.9777	1213.9545	1301.2243	1381.4679	1426.5345	1455.5555	1483.2701	1492.1211	1514.1257	1919.4436	3034.0536	3064.9621	3097.1849	3111.6898	3118.0084	3119.285	3204.57
CC12CN1C(=O)C2	C[C@]12CN1C(=O)C2	
InChI=1S/C5H7NO/c1-5-2-4(7)6(5)3-5/h2-3H2,1H3	InChI=1S/C5H7NO/c1-5-2-4(7)6(5)3-5/h2-3H2,1H3/t5-,6?/m0/s1
