17
gdb 4182	4.83996	1.43892	1.2722	0.9635	72.07	-0.2382	0.007	0.2452	979.5217	0.14239	-363.794188	-363.786831	-363.785887	-363.826182	28.027	
O	-0.0617018993	 1.3421852067	 0.3258343804	-0.395392
N	 0.0567024836	-0.061598546	 0.3785914284	-0.240799
C	-1.019099912	-0.6185293707	 0.009042729	 0.43055
C	-2.4023202301	-0.1519146994	-0.4099370433	-0.333772
C	-2.8191987041	-1.6481907903	-0.5296519508	-0.016734
C	-2.5727724475	-2.2834426469	-1.9234561485	-0.221262
C	-1.1392890998	-2.7156454341	-1.4893715002	-0.222614
C	-1.3652572964	-2.0857455458	-0.0793200508	-0.12532
H	 0.8010003006	 1.6289812112	 0.6435862447	 0.305128
H	-2.9130473946	 0.3985353482	 0.3872270992	 0.127055
H	-2.4567742472	 0.4495138439	-1.3229306539	 0.119829
H	-3.7191190218	-1.9448823117	 0.0080085096	 0.07086
H	-3.2298525546	-3.1288109179	-2.1410285993	 0.103397
H	-2.6303649985	-1.5866870402	-2.7646233298	 0.100105
H	-1.0118023234	-3.7997190311	-1.4465694569	 0.106205
H	-0.3063583967	-2.2952119739	-2.0570387159	 0.110722
H	-1.1410147584	-2.7067520218	 0.7886248081	 0.082043
54.3617	143.5488	204.8616	312.981	366.9036	390.4486	473.5769	535.9513	648.6372	726.0493	778.0185	784.0371	831.9538	876.188	921.2296	953.3219	956.4622	977.9083	1034.2186	1050.3175	1073.5873	1119.5382	1159.6899	1184.858	1209.828	1231.7928	1238.1673	1258.0755	1281.8725	1293.6515	1308.8291	1402.8942	1452.9638	1477.8711	1495.6089	1775.1341	3045.7637	3055.3528	3066.5027	3089.5112	3096.8156	3104.8156	3114.8822	3124.7657	3818.1607
ON=C1CC2CCC12	ON=C1C[C@H]2CC[C@@H]12	
InChI=1S/C6H9NO/c8-7-6-3-4-1-2-5(4)6/h4-5,8H,1-3H2	InChI=1S/C6H9NO/c8-7-6-3-4-1-2-5(4)6/h4-5,8H,1-3H2/t4-,5-/m1/s1
