19
gdb 2296	7.75867	1.28533	1.17847	0.9237	68.69	-0.25	0.0911	0.3411	1055.0762	0.171553	-310.897684	-310.889761	-310.888817	-310.930214	28.213	
C	 0.038106078	 1.3734383073	-0.0400339027	-0.222702
O	 0.1108865209	-0.030450152	-0.0431914805	-0.233005
C	 0.5766896964	-0.5617481974	 1.1797307541	-0.072009
C	 0.6441444537	-2.068709973	 1.06167448	 0.040083
C	 1.717976399	-2.7012750745	 0.1333358706	-0.2087
C	 1.9487160592	-3.7964336072	 1.2099179065	-0.209469
C	 1.2530529648	-2.8707677906	 2.2458426891	-0.23702
H	 1.0241918298	 1.8354127252	 0.1303366425	 0.100664
H	-0.3323427774	 1.6865975647	-1.0194830906	 0.124684
H	-0.650084294	 1.7471632584	 0.7355577976	 0.100601
H	 1.5766328276	-0.1551375332	 1.4176759671	 0.075526
H	-0.0939454985	-0.2684932078	 2.0079340803	 0.080234
H	-0.3506516428	-2.449663819	 0.8075172279	 0.077501
H	 1.4046588266	-3.0177214296	-0.8635179925	 0.099701
H	 2.5870469679	-2.0431107615	 0.0306065624	 0.096191
H	 1.3564488113	-4.6940001251	 1.0096037085	 0.101468
H	 2.9776447486	-4.1015451166	 1.4143011622	 0.094373
H	 1.9813237738	-2.2697801819	 2.801445564	 0.096443
H	 0.5638754852	-3.3256426163	 2.9615662236	 0.095435
76.9562	103.5689	123.8179	183.7646	236.7247	341.0046	390.6861	445.0894	648.1229	768.3628	793.7977	895.1572	916.8253	934.6081	968.5768	974.0061	985.9058	1076.9593	1121.6732	1155.6679	1174.4106	1193.5728	1203.2	1229.1191	1234.4447	1256.3049	1259.6744	1274.4378	1279.7874	1301.2387	1362.9081	1424.0807	1478.5795	1480.9272	1485.4817	1486.7644	1502.0979	1510.3818	1526.6574	2930.9723	2956.8652	2965.4763	3005.957	3043.2268	3049.3926	3056.5572	3057.9524	3096.2897	3105.7124	3109.9268	3119.183
COCC1CCC1	COCC1CCC1	
InChI=1S/C6H12O/c1-7-5-6-3-2-4-6/h6H,2-5H2,1H3	InChI=1S/C6H12O/c1-7-5-6-3-2-4-6/h6H,2-5H2,1H3
