15
gdb 3616	4.56679	3.63782	2.8765	1.6076	58.95	-0.2366	0.0927	0.3293	548.3764	0.128024	-308.486338	-308.481329	-308.480385	-308.514774	20.641	
C	-0.0143270168	 1.5447783221	 0.0410229729	-0.24905
C	 1.5152405831	 1.5326678009	-0.0104211458	-0.071646
C	 2.0610329424	 0.4870937169	 0.9516976726	-0.065289
C	 1.1344252409	-0.0458710779	 2.0392179154	-0.10236
O	-0.0103723741	-0.5575411343	 1.3458331817	-0.262273
C	 0.035580674	-0.0197948175	 0.0335173102	 0.091061
C	 1.52761477	 0.055379287	-0.3805061214	-0.083305
H	-0.5148541809	 2.0097011503	 0.8969010022	 0.096242
H	-0.4422726192	 1.9369950308	-0.8859513433	 0.100854
H	 2.1507523102	 2.3246844642	-0.3890156587	 0.083823
H	 3.1313416427	 0.4890457287	 1.1204737621	 0.090891
H	 1.5960967566	-0.8642222317	 2.6042589047	 0.103906
H	 0.8297271982	 0.7319800472	 2.7531492299	 0.097408
H	-0.6839077086	-0.5534140587	-0.5855308956	 0.082403
H	 2.0600360517	-0.4991376579	-1.1406146569	 0.087337
234.5194	404.1052	430.3515	664.3494	706.316	740.3781	783.6085	811.0111	847.6174	896.364	925.9057	951.1718	978.609	997.649	1007.2295	1038.2441	1048.8563	1078.2687	1112.0932	1128.6547	1158.0155	1201.376	1222.2314	1225.6225	1280.3587	1299.5155	1337.1189	1363.7805	1404.4258	1490.1468	1525.3376	3003.522	3042.1717	3050.0182	3096.7659	3132.1285	3176.7163	3189.2431	3212.1754
C1C2C3COC1C23	C1[C@H]2[C@H]3CO[C@@H]1[C@@H]23	
InChI=1S/C6H8O/c1-3-4-2-7-5(1)6(3)4/h3-6H,1-2H2	InChI=1S/C6H8O/c1-3-4-2-7-5(1)6(3)4/h3-6H,1-2H2/t3-,4+,5-,6-/m0/s1
