14
gdb 3208	3.87652	3.19642	2.05101	3.6287	58.22	-0.235	0.0136	0.2486	648.7055	0.113804	-324.566515	-324.56009	-324.559146	-324.59675	23.436	
C	-0.1016640295	 1.3322256151	-0.1958655753	-0.34524
N	-0.0344244697	-0.031885051	 0.2842531217	-0.09348
C	-1.0613765796	-1.0710853279	 0.1856014772	-0.001016
C	-0.9723022833	-1.7959545232	-1.1228708212	-0.289502
C	 0.0232732069	-2.1115668713	-0.0036689865	-0.219188
C	 1.0058070917	-0.9442094871	 0.0675917264	 0.413378
O	 2.1896870254	-0.7837612729	-0.0461801516	-0.359726
H	 0.9206914516	 1.7137759141	-0.2538050861	 0.157971
H	-0.5611683308	 1.4007972702	-1.1918529771	 0.118841
H	-0.6708081298	 1.9621873772	 0.4949010481	 0.12904
H	-1.9050864608	-1.0934115639	 0.8627514169	 0.115038
H	-1.7121292514	-2.5707170411	-1.3052609173	 0.125922
H	-0.6387082204	-1.2715624027	-2.0136520111	 0.128641
H	 0.1226313397	-3.0920531155	 0.4381579659	 0.11932
145.2207	157.8376	209.2126	254.5396	468.6951	487.5502	696.0439	727.9485	759.9609	834.6941	838.2211	925.6304	948.4136	969.4309	1035.2081	1047.6799	1077.0338	1099.5801	1151.9503	1184.7296	1242.1687	1261.8703	1288.6194	1367.559	1444.9247	1480.7728	1484.9129	1513.0324	1884.7868	3004.5197	3076.8659	3116.4538	3128.3266	3200.1659	3206.5778	3232.8665
CN1C2CC2C1=O	CN1[C@H]2C[C@H]2C1=O	
InChI=1S/C5H7NO/c1-6-4-2-3(4)5(6)7/h3-4H,2H2,1H3	InChI=1S/C5H7NO/c1-6-4-2-3(4)5(6)7/h3-4H,2H2,1H3/t3-,4+/m1/s1
