9
gdb 3888	7.58566	2.36214	1.8039	5.1783	41.27	-0.2594	0.0119	0.2712	614.8399	0.055698	-412.528245	-412.522716	-412.521772	-412.557489	19.934	
N	 0.0854995499	 1.3445668118	 0.1578397892	-0.581489
C	-0.0506611948	-0.0005337517	 0.0335765688	 0.512894
N	-1.1523969409	-0.6670115543	-0.0434270006	-0.219756
O	-0.7047844012	-2.0304042635	-0.0529545001	-0.228994
C	 0.6393013607	-2.0674952337	-0.009648641	 0.525174
O	 1.3481452365	-3.0162710498	-0.0193699502	-0.356889
O	 1.0767649831	-0.7426983012	 0.0506245764	-0.222315
H	 0.937127646	 1.733316517	-0.218634697	 0.284296
H	-0.7497155793	 1.8738329454	-0.0446079557	 0.28708
186.2805	279.1497	339.7605	377.325	547.2145	563.267	673.5415	704.0243	777.37	783.5218	894.207	968.363	998.1221	1122.756	1171.6667	1482.209	1622.5904	1724.6494	1957.2573	3582.4497	3692.6629
NC1=NOC(=O)O1	Nc1noc(=O)o1	
InChI=1S/C2H2N2O3/c3-1-4-7-2(5)6-1/h(H2,3,4)	InChI=1S/C2H2N2O3/c3-1-4-7-2(5)6-1/h(H2,3,4)
