10
gdb 1015	9.3393	2.06141	1.68868	5.4748	56.52	-0.2529	-0.0417	0.2111	661.5936	0.06991	-318.406529	-318.401195	-318.400251	-318.435662	19.197	
N	 0.1130456426	-1.1204733452	-0.0050930978	-0.33272
C	 0.0063757444	 0.0322825593	 0.0027938259	 0.244995
C	-0.0680443924	 1.4490572745	 0.0118443891	 0.254913
N	-1.1664036158	 2.1829370906	 0.0301376542	-0.281424
C	-0.7339562177	 3.4778802564	 0.0319335632	-0.082968
C	 0.6414640152	 3.5334279507	 0.0146108677	-0.090114
N	 1.0573378987	 2.2315572954	 0.0016548971	-0.277244
H	-1.4303084089	 4.3019131476	 0.0455965291	 0.127602
H	 1.338128395	 4.355014872	 0.0103704791	 0.149225
H	 2.0086500688	 1.9007100586	-0.0126376277	 0.287735
175.3278	178.6022	500.8541	569.5935	576.4629	593.0588	647.445	730.7881	768.1147	875.9901	929.7912	990.7281	1116.4778	1135.2958	1195.2466	1276.1233	1411.5418	1432.9682	1467.566	1562.8141	2350.2709	3257.8634	3285.6497	3658.3804
N#CC1=NC=CN1	N#Cc1ncc[nH]1	
InChI=1S/C4H3N3/c5-3-4-6-1-2-7-4/h1-2H,(H,6,7)	InChI=1S/C4H3N3/c5-3-4-6-1-2-7-4/h1-2H,(H,6,7)
