13
gdb 4679	5.87172	1.39196	1.13315	5.1787	70.66	-0.2397	-0.0408	0.1988	988.202	0.096213	-361.516351	-361.50932	-361.508376	-361.547821	25.208	
C	 0.1329672894	 1.440689681	 0.0497740653	-0.497499
C	-0.0643458964	-0.030242678	-0.0102873029	 0.34976
C	-1.1627529639	-0.822412842	-0.192534052	-0.240005
C	-0.7070025524	-2.1700971806	-0.1514321351	-0.255336
C	 0.6427510672	-2.1069048045	 0.0537998617	 0.248847
O	 1.0430339565	-0.800572315	 0.1411408169	-0.197071
C	 1.626654039	-3.1084071646	 0.1818869552	 0.219056
N	 2.4199283539	-3.9471942286	 0.2845090396	-0.339318
H	 0.820328951	 1.7806223023	-0.7323423657	 0.152257
H	-0.8234517603	 1.9493711557	-0.0848556014	 0.143725
H	 0.5555759205	 1.7448825801	 1.0134187858	 0.152252
H	-2.175200389	-0.4807320324	-0.3384260404	 0.124744
H	-1.2892339957	-3.0713391332	-0.257920217	 0.138588
114.5041	145.5506	154.3216	260.0998	336.2067	499.1083	551.0991	574.4035	639.5073	676.988	682.3519	808.2788	868.9411	964.8908	993.9494	1020.7788	1049.8002	1063.8337	1225.0701	1242.6271	1263.1012	1391.3199	1416.0326	1471.6989	1487.6831	1556.5003	1630.5278	2340.0899	3038.4707	3092.9146	3137.9103	3259.6777	3274.3294
CC1=CC=C(O1)C#N	Cc1ccc(o1)C#N	
InChI=1S/C6H5NO/c1-5-2-3-6(4-7)8-5/h2-3H,1H3	InChI=1S/C6H5NO/c1-5-2-3-6(4-7)8-5/h2-3H,1H3
