15
gdb 4103	3.2791	1.82152	1.24148	1.951	65.75	-0.2487	-0.0081	0.2406	935.3095	0.118408	-399.761374	-399.753759	-399.752815	-399.793593	28.33	
O	-0.1591773512	 1.2976981056	-0.0830440931	-0.390174
N	-0.0088676943	-0.0965832637	-0.0301374723	-0.196958
C	-1.1370262408	-0.679531435	 0.0160699782	 0.338757
C	-2.5160471617	-0.0544225162	 0.0241082333	-0.345021
C	-3.4146238944	-1.2670262816	 0.0193513794	-0.080892
C	-2.7346762492	-2.4132834289	 0.0475060019	-0.097318
C	-1.2356424812	-2.2073497562	 0.0499220785	 0.01234
O	-0.5608239775	-2.8728423454	-1.0089517317	-0.416683
H	 0.7547935526	 1.6005623354	-0.1161711379	 0.308595
H	-2.6529733412	 0.5779360836	 0.9114482048	 0.137585
H	-2.6701195636	 0.6106835523	-0.8355354327	 0.133601
H	-4.4956766742	-1.1820643255	 0.0064357292	 0.103724
H	-3.1623109522	-3.4088901228	 0.0526156155	 0.105238
H	-0.7680407489	-2.6078153356	 0.957323122	 0.110722
H	-0.8922631724	-2.508027996	-1.8373926451	 0.276483
52.7702	183.0388	221.7421	258.6245	319.4885	356.2541	421.3006	496.2016	538.7799	567.6799	692.3971	735.5151	805.7765	820.0739	950.8451	967.2831	976.2892	990.0481	1012.2907	1069.503	1132.7377	1155.2627	1204.1711	1259.3889	1273.8297	1296.396	1365.99	1403.357	1423.083	1462.6353	1679.8373	1756.1441	3024.1538	3042.0581	3044.2896	3187.9767	3215.1242	3797.9674	3814.8255
ON=C1CC=CC1O	ON=C1CC=C[C@H]1O	
InChI=1S/C5H7NO2/c7-5-3-1-2-4(5)6-8/h1,3,5,7-8H,2H2	InChI=1S/C5H7NO2/c7-5-3-1-2-4(5)6-8/h1,3,5,7-8H,2H2/t5-/m1/s1
