15
gdb 2158	3.66057	3.0529	1.77911	4.1989	56.53	-0.2629	0.015	0.2779	707.4326	0.126345	-345.710017	-345.703435	-345.702491	-345.740519	24.047	
C	-0.3630765442	 1.4769780775	 0.0297797824	-0.402267
C	 0.134995506	 0.0360386177	-0.0277646334	-0.124555
C	 1.0326333666	-0.3505557591	-1.2101926465	-0.240667
C	 1.8735613396	-1.4886471972	-0.6163090186	-0.085665
O	 1.9795611928	-1.1987823614	 0.7888971131	-0.219889
C	 1.0033724903	-0.3337053401	 1.1779084037	 0.444529
O	 0.8918728672	 0.041004771	 2.3092306694	-0.342853
H	 0.470711105	 2.1815861798	-0.0536192626	 0.124089
H	-1.0662112669	 1.6833615494	-0.7821674689	 0.116332
H	-0.8630112786	 1.6621376985	 0.9836352189	 0.145256
H	-0.7268635841	-0.6460667228	 0.0113828175	 0.111389
H	 0.4837721908	-0.6588669285	-2.1023618488	 0.114214
H	 1.6759891604	 0.4934671428	-1.4822911209	 0.117419
H	 1.3877760011	-2.4646773249	-0.7357927196	 0.116311
H	 2.886105604	-1.5511274627	-1.0200348555	 0.126356
115.6993	204.367	208.3153	254.4855	371.6924	505.4157	567.404	671.4756	713.2883	780.2768	853.3369	924.674	961.7983	984.8629	1054.941	1063.1685	1135.5527	1150.5131	1186.757	1212.3122	1241.8208	1311.5729	1315.273	1361.3051	1400.8844	1413.751	1492.6831	1497.6626	1498.6955	1524.6144	1878.8447	3008.2685	3034.9151	3042.5929	3052.4715	3106.6955	3110.7415	3117.309	3128.7149
CC1CCOC1=O	C[C@H]1CCOC1=O	
InChI=1S/C5H8O2/c1-4-2-3-7-5(4)6/h4H,2-3H2,1H3	InChI=1S/C5H8O2/c1-4-2-3-7-5(4)6/h4H,2-3H2,1H3/t4-/m0/s1
