13
gdb 4394	3.80502	2.03872	1.33845	2.6193	63.47	-0.2595	-0.0644	0.1951	857.3515	0.095999	-398.671855	-398.66506	-398.664115	-398.703045	24.647	
C	-0.0164973753	 1.4721189049	 0.0734251325	-0.468489
C	-0.005299256	-0.0140615797	-0.072055852	 0.429602
N	-0.1033130204	-0.5961031339	-1.2177747054	-0.317132
C	-0.0788295745	-1.9737688487	-1.2017742315	 0.011752
C	 0.0395528222	-2.7164774737	-0.0772560386	-0.248172
C	 0.1493879416	-2.0635772906	 1.2054987175	 0.421588
O	 0.2608250514	-2.5396999867	 2.2976532981	-0.329023
O	 0.1166046549	-0.6452733268	 1.1089211384	-0.235059
H	 0.9073663298	 1.8099704012	 0.5534979299	 0.157735
H	-0.116546658	 1.9346367151	-0.9073246754	 0.157165
H	-0.8456923038	 1.780469749	 0.718086118	 0.157726
H	-0.1623634889	-2.446198739	-2.176325779	 0.130091
H	 0.0569429869	-3.798047331	-0.0866693424	 0.132217
116.2815	149.6184	182.6633	306.5982	399.3305	489.9064	539.5378	562.2852	634.5761	751.4881	770.41	844.2932	857.0606	972.8159	1017.3156	1024.9952	1060.4449	1067.3839	1142.6623	1273.7697	1317.7289	1409.1803	1432.5718	1466.3942	1473.5617	1599.1681	1665.6639	1870.2953	3051.217	3109.5245	3172.2072	3176.7947	3231.065
CC1=NC=CC(=O)O1	Cc1nccc(=O)o1	
InChI=1S/C5H5NO2/c1-4-6-3-2-5(7)8-4/h2-3H,1H3	InChI=1S/C5H5NO2/c1-4-6-3-2-5(7)8-4/h2-3H,1H3
