15
gdb 1112	4.10896	1.96497	1.54732	1.4832	58.71	-0.2492	-0.0424	0.2068	819.2534	0.121652	-345.700085	-345.691786	-345.690842	-345.733546	28.109	
C	 0.4049499732	 0.7892494601	 0.6446107955	-0.477642
C	-0.6131817105	-0.1033439863	-0.0281618697	 0.378583
O	-1.6077553939	-0.5142228541	 0.5209488594	-0.293938
C	-0.2755450897	-0.5249464088	-1.4670321594	-0.375924
C	 0.5376162049	-1.8257624103	-1.3740391491	 0.378573
C	-0.2729607728	-3.1020362689	-1.3785748027	-0.477634
O	 1.7395320845	-1.798262683	-1.2549360658	-0.293944
H	 1.4084922559	 0.3724876607	 0.5052539967	 0.164355
H	 0.4023417441	 1.7756863891	 0.165884917	 0.144466
H	 0.1743195227	 0.8972549412	 1.7048620936	 0.143192
H	-1.2113460411	-0.6849098166	-2.005795704	 0.128949
H	 0.3391521517	 0.2287804602	-1.9626326776	 0.128956
H	-0.7264162337	-3.2460970427	-2.3664280454	 0.144451
H	 0.3613515816	-3.9561932612	-1.1397319333	 0.14319
H	-1.0969015669	-3.0168143894	-0.6615747953	 0.164366
48.3036	62.2078	143.086	177.1116	178.1005	319.035	408.3806	485.4391	500.5183	543.5871	624.3557	785.1651	796.41	892.687	933.712	998.9518	1062.3342	1078.2921	1136.6093	1181.8013	1243.2624	1263.743	1383.881	1383.962	1460.0956	1465.1642	1471.7892	1471.8851	1476.1001	1797.7887	1824.3656	3035.5762	3035.7756	3074.8959	3098.2285	3098.5292	3144.9661	3156.5231	3156.5418
CC(=O)CC(C)=O	CC(=O)CC(=O)C	
InChI=1S/C5H8O2/c1-4(6)3-5(2)7/h3H2,1-2H3	InChI=1S/C5H8O2/c1-4(6)3-5(2)7/h3H2,1-2H3
