18
gdb 2684	6.23053	1.13497	1.05078	2.8623	68.65	-0.2422	0.0325	0.2747	1177.681	0.158206	-326.97667	-326.967955	-326.967011	-327.01049	30.067	
C	-0.0270595789	 1.1830641135	-0.7844787035	-0.373959
C	-0.108459898	-0.1151764108	 0.0084507417	-0.068765
O	 1.0001453734	-0.9725580059	-0.2631032534	-0.200577
C	 0.8625558298	-1.8275660628	-1.3014685934	 0.126342
N	 1.8426145721	-2.5106363716	-1.6893842805	-0.228007
C	 1.7007040465	-3.4662405863	-2.7745284335	-0.108768
C	 0.3408951136	-3.6099941888	-3.4669437572	-0.395754
H	 0.91942442	 1.6926946875	-0.5847059166	 0.13777
H	-0.092241276	 0.9925624697	-1.8603954724	 0.12368
H	-0.8486158362	 1.8506780417	-0.5050086487	 0.119029
H	-0.0675363809	 0.082869343	 1.0831758383	 0.120609
H	-1.0506266887	-0.6424165254	-0.1965385116	 0.103678
H	-0.154874346	-1.8560983894	-1.7146640953	 0.071803
H	 2.4601762383	-3.210467591	-3.5255738805	 0.111266
H	 2.0086083438	-4.4446173149	-2.3813565453	 0.111847
H	-0.4413681121	-3.9338979924	-2.7718408053	 0.118023
H	 0.0172254769	-2.6716022893	-3.9303156355	 0.116806
H	 0.4116098824	-4.3622940669	-4.2583631571	 0.114978
49.8465	68.1856	157.6187	173.5898	235.238	239.5262	321.9237	364.6303	394.4901	510.5531	568.8987	779.468	801.9714	872.5113	925.5727	983.1609	1046.5711	1081.9923	1088.75	1115.8736	1147.6204	1175.0404	1244.5651	1314.4464	1335.4267	1377.6858	1393.0823	1401.1372	1411.6925	1427.6651	1484.7803	1485.3803	1493.2542	1494.8116	1506.9227	1512.7996	1778.9517	3008.9697	3012.738	3023.429	3031.8521	3033.2111	3039.8755	3086.5664	3098.0007	3106.132	3112.9835	3125.1329
CCOC=NCC	CCOC=NCC	
InChI=1S/C5H11NO/c1-3-6-5-7-4-2/h5H,3-4H2,1-2H3	InChI=1S/C5H11NO/c1-3-6-5-7-4-2/h5H,3-4H2,1-2H3
