16
gdb 4826	4.77788	1.34133	1.10305	2.0378	68.48	-0.2155	0.0223	0.2377	1066.4404	0.131752	-379.964915	-379.956892	-379.955948	-379.997929	28.636	
C	 0.4753984161	 1.2948545055	 0.0750099818	-0.497884
C	 0.0146318969	-0.1188963332	-0.0490551208	 0.342248
N	-0.6520649524	-0.6273101287	-1.0649407643	-0.295633
C	-0.843558618	-1.9551930754	-0.7571822732	-0.179785
C	-0.2976359039	-2.2613485639	 0.4622516793	 0.259529
C	-0.2178361277	-3.5117615673	 1.2677051512	-0.19248
O	 1.1121880052	-3.8062711167	 1.6962854148	-0.418258
N	 0.245944291	-1.0691391113	 0.9057052588	-0.320365
H	 1.5665978305	 1.3639369585	 0.1549435585	 0.130513
H	 0.160072881	 1.8419389614	-0.8141300002	 0.158284
H	 0.0481975719	 1.7880646466	 0.9557238515	 0.131968
H	-1.3728789145	-2.6177647459	-1.4262655437	 0.104266
H	-0.7939419612	-3.4281641058	 2.1973287664	 0.119519
H	-0.6579416046	-4.3357655365	 0.6885419968	 0.108532
H	 1.6557322453	-3.8783039099	 0.9038444048	 0.283739
H	 0.7812051144	-0.9629981073	 1.7520351983	 0.265808
63.3523	91.9522	132.4647	219.293	282.9733	368.2939	383.2185	453.955	545.4993	626.0501	682.4899	699.7754	757.5112	848.7183	961.5665	987.167	1009.0509	1032.0368	1059.7933	1063.2825	1175.0433	1197.7427	1215.372	1281.8937	1353.6343	1396.5875	1417.6139	1420.3801	1436.5607	1483.6396	1497.5807	1501.2935	1546.2632	1624.1343	3007.6037	3030.1533	3050.7531	3079.0913	3149.6941	3241.6744	3655.4465	3801.8167
CC1=NC=C(CO)N1	Cc1ncc(CO)[nH]1	
InChI=1S/C5H8N2O/c1-4-6-2-5(3-8)7-4/h2,8H,3H2,1H3,(H,6,7)	InChI=1S/C5H8N2O/c1-4-6-2-5(3-8)7-4/h2,8H,3H2,1H3,(H,6,7)
