13
gdb 4998	3.38694	2.35959	1.40268	2.139	62.71	-0.258	-0.0643	0.1936	820.6125	0.096453	-398.665876	-398.659165	-398.658221	-398.696835	24.438	
C	-0.0272963275	 1.5213156086	 0.0013171838	-0.478102
C	-0.0057857645	 0.0231911731	-0.0334986087	 0.094748
C	-0.0516775447	-0.7198864405	-1.1667422356	-0.06192
N	-0.0316662557	-2.1011607487	-1.1974008721	-0.277274
C	 0.0346784223	-2.6780973867	-0.0573059531	 0.143878
O	 0.0863557314	-2.0790273019	 1.1394146977	-0.194357
C	 0.0699895194	-0.6697519655	 1.2439976852	 0.394964
O	 0.1189397264	-0.1894170734	 2.3409356386	-0.326762
H	 0.8704218529	 1.9114057902	 0.492221314	 0.150541
H	-0.0862916814	 1.9356943986	-1.0078786648	 0.126215
H	-0.8807547236	 1.8841595138	 0.5835246666	 0.150552
H	-0.1087244451	-0.2390151735	-2.1395554584	 0.124564
H	 0.0573280702	-3.759770124	 0.0357041669	 0.152952
129.847	152.8177	248.0272	279.0984	377.8291	493.678	519.1892	577.9339	590.3756	732.4495	789.1846	879.2707	943.4003	980.6613	994.7816	1026.2522	1071.4487	1103.0338	1230.5709	1269.0186	1397.2976	1411.1002	1419.22	1469.7887	1486.3894	1609.8712	1672.7535	1851.9208	3040.4026	3096.5635	3127.7676	3171.4358	3194.533
CC1=CN=COC1=O	Cc1cncoc1=O	
InChI=1S/C5H5NO2/c1-4-2-6-3-8-5(4)7/h2-3H,1H3	InChI=1S/C5H5NO2/c1-4-2-6-3-8-5(4)7/h2-3H,1H3
