12
gdb 3959	7.69349	1.97775	1.60752	1.6896	51.18	-0.2564	-0.0018	0.2546	712.6826	0.09239	-356.688211	-356.681916	-356.680972	-356.719275	21.63	
O	-0.011127408	 1.3806077528	 0.3360753775	-0.416261
C	 0.004389368	 0.0089426514	-0.0282951268	-0.183671
C	-1.4059644432	-0.4860461475	 0.0088822773	 0.314001
N	-1.7065378508	-1.7756242245	 0.1729539113	-0.278749
N	-3.0329970499	-1.7846262799	 0.1187064809	-0.072076
N	-3.6302333412	-0.6149643716	-0.0553637908	-0.197028
C	-2.605377827	 0.2352635841	-0.1316097905	-0.109552
H	 0.8688363114	 1.7379832194	 0.1874327304	 0.293335
H	 0.4178707061	-0.1259590863	-1.0408575419	 0.108816
H	 0.6188060763	-0.5960750989	 0.6543830305	 0.11401
H	-3.5586876605	-2.6372320463	 0.2219429241	 0.292011
H	-2.7578757313	 1.2924492873	-0.2674013319	 0.135165
36.1062	194.157	235.2309	296.3504	462.5023	517.6111	679.4644	717.4883	724.568	889.2632	995.6108	1025.4263	1039.5424	1083.9379	1155.3277	1204.4683	1213.7087	1238.8218	1265.1253	1350.2145	1410.3794	1453.644	1495.4556	1515.3709	1575.0085	2969.7711	3009.1978	3290.7443	3671.7817	3838.2133
OCC1=NNN=C1	OCc1n[nH]nc1	
InChI=1S/C3H5N3O/c7-2-3-1-4-6-5-3/h1,7H,2H2,(H,4,5,6)	InChI=1S/C3H5N3O/c7-2-3-1-4-6-5-3/h1,7H,2H2,(H,4,5,6)
