15
gdb 1237	6.82142	1.0937	0.97883	3.8667	69.	-0.2626	-0.0578	0.2048	1162.9692	0.122415	-308.505951	-308.497379	-308.496434	-308.54241	28.339	
C	-0.0739241209	 1.5764147238	-0.0437239384	-0.37851
C	-0.0159596058	 0.0351042265	-0.0284250837	-0.137047
C	-1.4227516843	-0.5898243556	 0.0646836848	-0.377711
C	 0.7133393381	-0.4763798616	-1.1852229018	 0.161238
C	 1.3007926826	-0.9084434486	-2.1493115202	-0.041812
C	 2.0282431977	-1.3893853755	-3.2940442593	 0.022143
O	 1.7990356963	-2.4291962871	-3.8693755238	-0.231102
H	 0.9287942973	 2.0095260959	-0.079455182	 0.129008
H	-0.6309789095	 1.9324026109	-0.9154748091	 0.1308
H	-0.5777007762	 1.9399051607	 0.8568676697	 0.120954
H	 0.5507162351	-0.2720195864	 0.8624328969	 0.121549
H	-2.0271869352	-0.3085305246	-0.802701389	 0.131469
H	-1.3677141026	-1.6804330089	 0.1014160101	 0.134265
H	-1.930222545	-0.2354185603	 0.9669403833	 0.119241
H	 2.8451026524	-0.7162100392	-3.6267503176	 0.095517
2.0535	85.8885	128.7312	208.4665	223.0958	247.443	293.7707	352.6899	493.0155	536.6976	603.9952	762.7245	885.7776	931.941	965.5692	1022.7739	1063.9537	1120.6643	1143.7645	1207.6874	1310.2037	1342.2539	1397.7887	1419.8813	1423.6101	1485.5946	1489.1232	1499.1899	1509.5772	1765.9499	2324.6189	2912.1814	3005.1546	3041.0261	3044.1215	3113.6319	3118.3578	3123.9196	3126.9855
CC(C)C#CC=O	CC(C)C#CC=O	
InChI=1S/C6H8O/c1-6(2)4-3-5-7/h5-6H,1-2H3	InChI=1S/C6H8O/c1-6(2)4-3-5-7/h5-6H,1-2H3
