16
gdb 3022	6.31421	1.5982	1.46349	2.5245	56.7	-0.2379	0.0574	0.2953	848.1959	0.137029	-362.873906	-362.866319	-362.865375	-362.905573	27.529	
O	-0.056033972	 1.3332903391	-0.2721254086	-0.433433
C	 0.005337572	-0.0722909049	-0.040383858	-0.100829
C	-1.4417343219	-0.5440021651	 0.1099080261	 0.105789
O	-2.1913059362	-0.1364181794	-1.0219983667	-0.446067
C	-1.5204494958	-2.0518729165	 0.2344164178	 0.009266
C	-2.7424014396	-2.780266474	-0.1733794359	-0.244945
N	-1.5079773724	-2.8821009776	-0.9794240536	-0.326009
H	 0.7927534296	 1.6289275567	-0.6120700776	 0.296704
H	 0.4713464995	-0.5949749665	-0.8874863952	 0.105348
H	 0.577056537	-0.3045487564	 0.8698078585	 0.096724
H	-1.8543363541	-0.0845677789	 1.0244027925	 0.079545
H	-1.8800743872	 0.754349981	-1.2281911125	 0.294629
H	-0.9255043242	-2.4520920882	 1.0538874934	 0.086027
H	-3.0281322789	-3.6900651225	 0.3468586477	 0.112043
H	-3.5634395559	-2.1943672024	-0.5737986655	 0.128675
H	-1.6126708101	-2.2530934543	-1.7745142524	 0.236534
88.6852	132.8631	191.8015	261.6374	279.6735	325.9012	412.4402	472.3223	523.3106	643.1684	794.5519	856.5483	888.0522	952.6587	996.256	999.5772	1067.9429	1079.3151	1099.7013	1134.4425	1159.704	1202.8408	1227.8326	1259.3646	1266.704	1292.4896	1321.9434	1360.166	1403.4536	1438.6066	1462.4122	1506.5457	1509.4611	2958.8583	2992.1031	3037.9279	3115.9235	3122.0582	3209.2746	3481.1595	3774.6116	3844.5889
OCC(O)C1CN1	OC[C@@H](O)[C@H]1CN1	
InChI=1S/C4H9NO2/c6-2-4(7)3-1-5-3/h3-7H,1-2H2	InChI=1S/C4H9NO2/c6-2-4(7)3-1-5-3/h3-7H,1-2H2/t3-,4-/m1/s1
