12
gdb 4325	4.26002	1.90746	1.31753	3.1533	61.66	-0.2249	-0.0494	0.1755	838.6952	0.085659	-414.701504	-414.695267	-414.694323	-414.731915	23.728	
O	 0.0285138782	 1.3291620963	 0.0081953049	-0.404555
C	-0.0257063566	-0.0093475477	 0.0009717826	 0.429457
C	-1.2024625104	-0.6779327016	 0.0037316416	-0.26594
C	-1.2028234374	-2.11469176	-0.0043878902	 0.396449
N	-2.2165924314	-2.8703227671	-0.0029914207	-0.540509
O	 0.1039030451	-2.6949603908	-0.0148850976	-0.219936
C	 1.1832082175	-1.9156188899	-0.0164327089	 0.14911
N	 1.2116984711	-0.6371326491	-0.0094316325	-0.36422
H	 0.964884116	 1.5698444747	 0.0043448973	 0.307889
H	-2.154568358	-0.1678814393	 0.0118919123	 0.1338
H	-1.9489424514	-3.8532292062	-0.0100110272	 0.225504
H	 2.1010220873	-2.4968486193	-0.0248817216	 0.152951
144.9814	187.118	362.8772	426.0402	459.9505	501.8243	539.0112	579.5445	680.0618	746.7484	752.3553	819.2121	863.2604	875.8597	962.8859	974.93	1074.4648	1162.6772	1213.0368	1276.9194	1307.0455	1396.7395	1444.6659	1640.1128	1712.6016	1770.5682	3188.4003	3246.0082	3510.8888	3779.3581
OC1=CC(=N)OC=N1	O[C@H]1C=C([NH])OC=N1	
InChI=1S/C4H4N2O2/c5-3-1-4(7)6-2-8-3/h1-2,5,7H	InChI=1S/C4H5N2O2/c5-3-1-4(7)6-2-8-3/h1-2,4-5,7H/t4-/m0/s1
