17
gdb 2710	14.53074	0.83785	0.82172	2.9148	63.13	-0.2534	-0.025	0.2284	1367.0336	0.145428	-346.857432	-346.848635	-346.847691	-346.891883	28.869	
C	-0.0869585763	 1.5263164853	 0.0325330361	-0.384829
C	-0.0281213298	 0.0207818662	-0.1601742503	-0.03302
O	-1.3126281271	-0.5159010642	 0.0946271356	-0.240253
C	-1.3712732822	-1.9136715159	-0.0559029597	-0.057031
C	-2.8090880203	-2.3609386942	 0.2101902074	-0.279444
C	-2.9290806798	-3.8639858697	 0.3076864003	 0.153506
O	-3.6778275413	-4.5413678245	-0.347241752	-0.232872
H	 0.8932976123	 1.9729171493	-0.1582941213	 0.11701
H	-0.8120543003	 1.9725487971	-0.6537763533	 0.129166
H	-0.3874141388	 1.7710469306	 1.0551975052	 0.127726
H	 0.2888596356	-0.2272316621	-1.1871421229	 0.089291
H	 0.7125478613	-0.4296800301	 0.5223235401	 0.087043
H	-1.0606269257	-2.2107760683	-1.0716260116	 0.100331
H	-0.6804038282	-2.4092942577	 0.6494691607	 0.088518
H	-3.1134742854	-1.9360803904	 1.1770215684	 0.13194
H	-3.4891144761	-1.9906518354	-0.5601584234	 0.13074
H	-2.252879788	-4.329545096	 1.0638940306	 0.072176
49.1274	61.4229	99.3013	132.9547	147.8396	247.2002	287.9929	364.4249	473.4038	532.9087	787.9897	821.763	871.3213	894.3109	1002.1017	1047.5341	1090.1154	1138.1169	1153.4573	1166.9661	1187.7131	1231.7444	1276.6039	1296.8167	1307.4651	1388.7856	1408.3136	1431.955	1451.7206	1467.1808	1483.6074	1499.4833	1516.7467	1539.1969	1838.1189	2848.2376	2942.0708	2957.8646	2977.378	2981.0613	3026.5919	3045.7441	3117.7893	3120.5942	3122.6559
CCOCCC=O	CCOCCC=O	
InChI=1S/C5H10O2/c1-2-7-5-3-4-6/h4H,2-3,5H2,1H3	InChI=1S/C5H10O2/c1-2-7-5-3-4-6/h4H,2-3,5H2,1H3
