9
gdb 3905	6.30373	2.98785	2.02706	1.7883	46.67	-0.2704	-0.111	0.1594	554.5055	0.05722	-371.546126	-371.5411	-371.540156	-371.575153	17.665	
O	-0.0251916426	-0.0637225498	 0.0029841797	-0.344632
C	 0.038080099	 1.1366201531	 0.0087224009	 0.482177
N	-1.1430516328	 1.9202112278	 0.028667195	-0.240193
N	-1.2287270132	 3.2436365516	 0.0369296084	-0.002458
N	-0.1410049658	 3.9143367487	 0.0260374766	-0.198213
C	 1.0421072325	 3.1898241228	 0.0065111385	 0.126752
N	 1.1968498036	 1.9062933696	-0.0025827605	-0.279782
H	-2.0340575425	 1.4372325529	 0.0379534964	 0.297959
H	 1.9310222918	 3.8169666733	-0.0022865051	 0.15839
115.7806	352.1562	472.1134	524.4431	590.1063	672.7295	774.7311	818.9065	856.8805	983.9299	1019.9715	1054.5718	1133.4411	1210.8955	1367.2923	1420.2087	1524.1793	1621.6611	1855.2713	3169.3391	3577.8593
O=C1NN=NC=N1	O=c1[nH]nncn1	
InChI=1S/C2H2N4O/c7-2-3-1-4-6-5-2/h1H,(H,3,4,5,7)	InChI=1S/C2H2N4O/c7-2-3-1-4-6-5-2/h1H,(H,3,4,5,7)
