11
gdb 3777	8.13715	2.14346	1.71455	1.1809	50.1	-0.2483	-0.0165	0.2319	680.6174	0.078092	-376.547304	-376.541009	-376.540065	-376.578657	20.968	
C	 0.02636479	 1.4355580213	 0.0987046388	-0.336558
N	 0.3393522679	 0.0154937414	 0.118866238	-0.353754
C	 0.6574030752	-0.5640704152	-0.9348154129	 0.551074
O	 0.9680939608	-1.9141591751	-0.988900032	-0.192502
C	 1.2526138949	-2.1506566846	-2.2823091661	 0.108082
N	 1.1703230421	-1.1492275877	-3.0689351594	-0.111751
O	 0.7791752463	-0.0812898703	-2.2148728778	-0.254654
H	 0.7031458867	 1.9590116014	 0.7821736295	 0.135984
H	 0.0998286637	 1.9007162892	-0.8909014391	 0.131475
H	-0.9901071304	 1.5815011235	 0.47903189	 0.135984
H	 1.5283104629	-3.1514480938	-2.575679729	 0.186621
28.2216	156.2283	215.0516	269.1187	516.7959	593.1868	692.352	712.098	884.2269	888.1961	892.5236	946.4859	1089.8972	1101.1494	1138.4442	1184.1506	1208.2574	1298.8933	1448.9781	1493.6312	1503.1448	1674.4157	1856.7147	3021.1778	3089.0096	3091.2825	3284.9055
CN=C1OC=NO1	CN=c1ocno1	
InChI=1S/C3H4N2O2/c1-4-3-6-2-5-7-3/h2H,1H3	InChI=1S/C3H4N2O2/c1-4-3-6-2-5-7-3/h2H,1H3
