16
gdb 1698	4.37718	2.11946	1.87211	4.1171	64.59	-0.3031	0.033	0.3361	748.5932	0.137225	-288.653529	-288.646408	-288.645464	-288.684349	26.425	
C	-0.0824195042	 1.5679559811	-0.0021627027	-0.441462
C	-0.0242539669	 0.0341168726	-0.0006938301	 0.17153
C	 1.1257889295	-0.5389740589	-0.9023638209	-0.245924
C	 2.0064482547	-0.7024333327	 0.3642493046	-0.215779
C	 0.735893855	-0.5517175444	 1.2414893171	-0.245923
C	-1.3483784823	-0.526681018	-0.2448424365	 0.233295
N	-2.3931376353	-0.9842667098	-0.4375801276	-0.348412
H	 0.9139958656	 1.980939283	 0.1814715934	 0.123321
H	-0.4378272672	 1.9445285526	-0.9656151397	 0.136171
H	-0.7550180051	 1.9341737021	 0.7787713972	 0.13617
H	 0.8519376872	-1.4976261836	-1.3469417856	 0.125263
H	 1.4807460298	 0.1277275578	-1.6914325935	 0.111349
H	 2.5581738785	-1.6389130471	 0.4590227313	 0.111851
H	 2.708504711	 0.1240702772	 0.496844189	 0.111939
H	 0.7889176123	 0.1050985651	 2.1126362646	 0.111349
H	 0.3250665874	-1.5148552871	 1.5501064095	 0.125263
120.9741	182.0378	198.7074	256.8574	325.6201	342.0623	540.9176	562.2476	592.5545	703.9485	797.451	865.5617	915.1666	925.4018	933.8342	947.9133	994.3507	1053.1364	1159.6411	1175.8036	1214.7555	1220.1384	1260.4624	1272.7386	1279.0541	1308.4535	1410.4086	1475.1257	1483.967	1491.3802	1498.2209	1507.0455	2347.0627	3040.4091	3069.3148	3070.541	3076.9035	3114.7906	3115.5453	3118.3018	3127.734	3138.3789
CC1(CCC1)C#N	CC1(CCC1)C#N	
InChI=1S/C6H9N/c1-6(5-7)3-2-4-6/h2-4H2,1H3	InChI=1S/C6H9N/c1-6(5-7)3-2-4-6/h2-4H2,1H3
