11
gdb 237	9.4168	2.22029	1.85862	3.7732	48.37	-0.2498	0.0244	0.2742	627.6953	0.082749	-285.287913	-285.280928	-285.279984	-285.319587	23.677	
N	-0.0882742454	 1.3355191279	 0.1563521701	-0.524331
C	 0.0856954302	 0.0213996892	-0.1771222711	 0.419453
O	 1.1536948732	-0.4405819145	-0.5060807633	-0.333319
C	-1.2256988211	-0.7925898821	-0.1649864692	-0.478157
C	-1.0212437126	-2.21964928	 0.0153767644	 0.337725
C	-0.8764692822	-3.4008185309	 0.1721302164	-0.439657
H	 0.7314312076	 1.9191642376	 0.1974629326	 0.264893
H	-0.9396389084	 1.6795404024	 0.5641041265	 0.259089
H	-1.9039939076	-0.4063233206	 0.606157077	 0.132048
H	-1.7222325653	-0.6027632631	-1.1266303002	 0.16295
H	-0.7319970883	-4.4438627959	 0.3075413967	 0.199306
19.3645	148.6415	186.9216	322.9782	363.3582	437.7403	499.8364	608.1378	624.0973	649.0059	675.0256	825.3838	947.2012	1001.3245	1090.1661	1220.5526	1272.6745	1374.6773	1448.2059	1619.0178	1821.8408	2252.0273	3017.3203	3050.338	3508.2611	3602.0648	3736.4854
NC(=O)CC#C	NC(=O)CC#C	
InChI=1S/C4H5NO/c1-2-3-4(5)6/h1H,3H2,(H2,5,6)	InChI=1S/C4H5NO/c1-2-3-4(5)6/h1H,3H2,(H2,5,6)
