13
gdb 3696	7.23082	2.14807	1.6769	3.2121	55.71	-0.22	0.0354	0.2555	717.0252	0.104074	-336.853985	-336.847324	-336.846379	-336.884262	24.154	
C	 0.0074667941	 1.4515817348	-0.003187939	-0.479442
C	-0.0126613961	-0.0394553969	 0.0150797064	 0.35189
N	-0.1060705172	-0.7585314189	-1.0876081594	-0.272912
N	-0.0847487485	-2.0397597348	-0.595491731	-0.250378
C	 0.019602656	-2.0136871291	 0.7505232264	 0.407598
N	-0.0030422129	-3.1423647318	 1.5474513993	-0.598508
N	 0.0733687832	-0.7663989501	 1.1762870302	-0.359386
H	 0.9320676528	 1.83267588	 0.4421231901	 0.134469
H	-0.0693611997	 1.8151940901	-1.0291602183	 0.136901
H	-0.8242994791	 1.8560949793	 0.5823846639	 0.135856
H	-0.2043345766	-2.8199276987	-1.2181396423	 0.270845
H	 0.5250939798	-3.9281424923	 1.1935266087	 0.254156
H	 0.2579144644	-2.9196160115	 2.4983541051	 0.268911
120.9385	207.4442	264.509	286.9009	345.4793	425.9532	459.7596	629.7661	666.8918	706.7197	764.4538	788.0153	1002.6276	1018.8973	1066.2624	1069.5892	1119.9056	1141.6666	1319.6087	1381.7232	1417.4321	1477.535	1480.3895	1498.0674	1580.7817	1604.0872	1659.9285	3044.6345	3099.5492	3143.8919	3556.9887	3655.3762	3677.6424
CC1=NNC(N)=N1	Cc1n[nH]c(N)n1	
InChI=1S/C3H6N4/c1-2-5-3(4)7-6-2/h1H3,(H3,4,5,6,7)	InChI=1S/C3H6N4/c1-2-5-3(4)7-6-2/h1H3,(H3,4,5,6,7)
