14
gdb 4677	5.97723	1.33404	1.09809	4.9778	74.53	-0.2233	-0.0202	0.2032	1024.5245	0.10898	-341.650841	-341.643526	-341.642581	-341.682628	26.513	
C	-0.000868667	 1.4860471006	 0.0926039558	-0.508941
C	-0.0019755638	-0.0004405102	-0.0433224102	 0.306537
C	-0.051832836	-0.8053909159	-1.1689950798	-0.203484
C	-0.0273973112	-2.1528893367	-0.7475101778	-0.220252
C	 0.03725215	-2.1489002061	 0.6358811667	 0.204242
N	 0.0517302939	-0.8268007637	 1.0428786096	-0.350091
C	 0.0842489477	-3.2108178959	 1.5614560333	 0.197543
N	 0.1235100545	-4.0732119363	 2.3364604897	-0.352714
H	 0.905838899	 1.8511160644	 0.5894333757	 0.138966
H	-0.0480524478	 1.9488565636	-0.8950712596	 0.146532
H	-0.8604836553	 1.8449863245	 0.6709342815	 0.138985
H	-0.1006564845	-0.4489648382	-2.1864217371	 0.107139
H	-0.0531951583	-3.0361606068	-1.3656024924	 0.121329
H	 0.095559859	-0.5300947533	 2.0035273746	 0.274209
90.4711	139.5657	150.2261	260.9569	332.6852	496.855	518.0762	544.0559	575.5366	642.31	674.1475	679.7975	796.3454	863.2346	981.4953	1011.3571	1017.1243	1062.0878	1071.2985	1204.2112	1270.9524	1308.0262	1415.0485	1418.0921	1442.1211	1481.2847	1505.2246	1514.032	1616.764	2330.871	3026.5974	3075.2497	3131.5897	3250.9784	3269.7447	3668.2497
CC1=CC=C(N1)C#N	Cc1ccc([nH]1)C#N	
InChI=1S/C6H6N2/c1-5-2-3-6(4-7)8-5/h2-3,8H,1H3	InChI=1S/C6H6N2/c1-5-2-3-6(4-7)8-5/h2-3,8H,1H3
