13
gdb 3427	4.94827	2.93994	2.08736	4.2291	53.74	-0.2328	0.0222	0.255	610.3919	0.104783	-340.646229	-340.64062	-340.639676	-340.675542	21.349	
O	 0.0141639597	-0.0307758346	-0.0631056554	-0.385204
C	 0.0176039751	 1.1787215184	-0.0082623683	 0.456849
N	-1.0793338551	 1.993832327	 0.1140891767	-0.318462
C	-0.8264672023	 3.424906627	 0.0532638222	-0.16097
C	 0.6944651801	 3.4945099083	-0.0226077381	-0.03915
N	 1.3369594576	 2.9147939562	 1.1669245946	-0.325905
C	 1.2117929673	 2.1066502904	-0.0776078241	-0.166778
H	-1.9897716217	 1.5995008622	 0.2852352141	 0.253801
H	-1.282762489	 3.8771663573	-0.8373490558	 0.110146
H	-1.2060547261	 3.9449020652	 0.9408274453	 0.122438
H	 1.1649785211	 4.3172866937	-0.5476824468	 0.102342
H	 2.2939348221	 3.2581210106	 1.2256197746	 0.238717
H	 2.0952791011	 1.7939318084	-0.6189755889	 0.112177
144.5667	264.3495	389.2417	450.5455	490.6718	614.5745	714.8233	783.7411	827.0041	857.6754	869.2971	911.3033	946.5033	1027.1371	1063.7379	1087.6767	1127.7305	1162.9952	1223.9547	1252.3093	1260.394	1337.752	1370.8342	1409.8143	1452.5194	1517.44	1836.3093	3012.2352	3054.0622	3184.319	3206.9624	3487.7892	3654.0493
O=C1NCC2NC12	O=C1NC[C@H]2N[C@@H]12	
InChI=1S/C4H6N2O/c7-4-3-2(6-3)1-5-4/h2-3,6H,1H2,(H,5,7)	InChI=1S/C4H6N2O/c7-4-3-2(6-3)1-5-4/h2-3,6H,1H2,(H,5,7)/t2-,3-/m1/s1
