16
gdb 1518	7.34261	1.24451	1.14579	4.4501	58.99	-0.2423	0.0292	0.2715	1043.4654	0.135031	-362.935648	-362.92675	-362.925806	-362.970785	29.469	
C	 0.2673174188	 1.4139270346	 0.0562524815	-0.372586
C	-0.3256464289	 0.0208392433	-0.1634660566	-0.142101
N	 0.2111453017	-0.6422647842	-1.3411606959	-0.320605
C	 0.9817970912	-1.7686756954	-1.272334849	 0.408839
O	 1.2409226451	-2.348188962	-0.2384450434	-0.352236
C	 1.5443334074	-2.2106013049	-2.6308225536	-0.182017
O	 1.6943564161	-3.6083149673	-2.6219510401	-0.38936
H	 1.3508371546	 1.3571667702	 0.1952668426	 0.13058
H	 0.0675823774	 2.0732019739	-0.7960719578	 0.109031
H	-0.1701501187	 1.8786927525	 0.9454837028	 0.121369
H	-0.0958961299	-0.6364907326	 0.6776747862	 0.153615
H	-1.4180189556	 0.0838585525	-0.2466056248	 0.106005
H	 0.017772941	-0.2419844034	-2.2450457492	 0.239168
H	 0.880295477	-1.8714021086	-3.4441135581	 0.084075
H	 2.507531405	-1.6901338229	-2.7599287697	 0.11374
H	 2.2701249577	-3.8518507556	-3.3519071349	 0.292483
23.5223	41.3137	93.6827	170.0731	198.9367	266.5194	324.216	364.056	436.5197	470.053	598.1152	712.259	791.1657	900.0553	923.5639	1015.4292	1064.9567	1110.873	1143.3861	1171.0898	1221.7539	1227.7074	1291.5019	1317.3722	1390.4323	1410.8506	1454.367	1488.2873	1492.9058	1498.4881	1503.6194	1545.0495	1802.8904	2951.8157	2985.6293	3025.7109	3032.4769	3094.6608	3115.4999	3126.2027	3634.0241	3840.5708
CCNC(=O)CO	CCNC(=O)CO	
InChI=1S/C4H9NO2/c1-2-5-4(7)3-6/h6H,2-3H2,1H3,(H,5,7)	InChI=1S/C4H9NO2/c1-2-5-4(7)3-6/h6H,2-3H2,1H3,(H,5,7)
