21
gdb 1573	6.5984	1.09387	1.00053	1.3566	71.48	-0.2611	0.0722	0.3334	1244.8852	0.192945	-312.133269	-312.123814	-312.12287	-312.167204	33.722	
C	 0.0119099772	 1.5872370466	-0.0423295669	-0.381663
C	 0.0099656385	 0.0570161473	-0.0087542041	-0.162109
C	 0.6931792576	-0.5194835344	 1.2354339158	-0.182764
C	 0.7592121702	-2.0517718574	 1.2467005947	 0.137219
O	 1.4386433533	-2.5526157409	 0.0931384598	-0.428502
C	 1.3753185351	-2.6018725789	 2.5396090268	-0.186325
C	 1.3893119998	-4.1309663424	 2.6004137107	-0.379983
H	 1.0338180942	 1.98346225	-0.0355999119	 0.110208
H	-0.4845662479	 1.9668667828	-0.9409274087	 0.111391
H	-0.5078482339	 2.0067668832	 0.8266737464	 0.110887
H	-1.0241160144	-0.3101145974	-0.0513972527	 0.092733
H	 0.5080465092	-0.3409398641	-0.8992601588	 0.107748
H	 1.7178557848	-0.1226135336	 1.3122659266	 0.079012
H	 0.1706191366	-0.1792891386	 2.1396422991	 0.091608
H	-0.2601322328	-2.4497153865	 1.1459808221	 0.082499
H	 2.3457605405	-2.2275481747	 0.1306909148	 0.274274
H	 2.4010705682	-2.2138542306	 2.629706991	 0.082499
H	 0.8219535519	-2.1944228109	 3.3950777507	 0.094596
H	 0.3702484722	-4.5334816038	 2.5989500132	 0.113111
H	 1.9082796285	-4.5452516587	 1.7321969431	 0.126478
H	 1.8880973613	-4.4884952371	 3.5062837181	 0.107083
80.6986	89.1985	128.5916	145.0218	222.4057	246.7884	278.9566	300.6224	329.0084	384.4527	469.8107	545.0492	745.4625	780.9341	844.5401	886.7057	899.4948	971.3844	1011.6002	1037.8777	1055.5183	1082.9005	1106.8026	1131.2074	1166.0348	1241.7925	1265.5803	1281.9262	1314.1579	1339.2803	1363.018	1385.2918	1395.3712	1407.2339	1413.8011	1421.9654	1472.9535	1484.8861	1494.5723	1495.8473	1499.9461	1509.4902	1511.4573	2985.3836	2997.5865	3018.2156	3022.9637	3027.1866	3035.3799	3037.3495	3052.6374	3070.1038	3095.0682	3100.0305	3100.8282	3122.3301	3788.2874
CCCC(O)CC	CCC[C@@H](O)CC	
InChI=1S/C6H14O/c1-3-5-6(7)4-2/h6-7H,3-5H2,1-2H3	InChI=1S/C6H14O/c1-3-5-6(7)4-2/h6-7H,3-5H2,1-2H3/t6-/m0/s1
