17
gdb 1345	4.20885	2.3212	2.19512	1.2871	64.48	-0.2376	0.0282	0.2658	704.9867	0.148286	-309.733988	-309.726958	-309.726014	-309.76457	27.395	
C	-0.0931953577	 1.5420272218	-0.0082134594	-0.435362
C	 0.0099352597	 0.0138693155	-0.011915047	 0.412232
O	-1.291797805	-0.5685568411	-0.0299868322	-0.475615
C	 0.9091295115	-0.4764345023	-1.1917364385	-0.310492
C	 2.2302476683	-0.7850387451	-0.535151069	-0.056485
C	 2.1340256095	-0.7961995606	 0.7937451089	-0.062353
C	 0.7341429276	-0.4978915648	 1.2630041959	-0.283438
H	 0.9001545689	 1.9976242604	 0.0583021807	 0.12333
H	-0.5633847537	 1.9042069278	-0.9311479118	 0.100804
H	-0.6924487601	 1.882305196	 0.8415778748	 0.120285
H	-1.7771364208	-0.1863429249	-0.7688839504	 0.272214
H	 0.4658157313	-1.377161621	-1.6371131956	 0.108964
H	 0.9889442121	 0.2692156289	-1.9929442766	 0.090934
H	 3.1305270663	-0.9995169092	-1.1008019881	 0.088962
H	 2.9443327211	-1.020679738	 1.4787150862	 0.089327
H	 0.6950795871	 0.2324866256	 2.0796227606	 0.097168
H	 0.229304304	-1.402432949	 1.6253871115	 0.119525
83.0275	281.3572	290.364	318.1388	352.0409	392.4617	438.6006	450.1184	594.8802	692.7681	765.5367	781.7729	911.4963	933.4002	957.0524	963.0931	979.0466	988.1461	992.3622	1095.8968	1115.9323	1132.2279	1157.8864	1192.1637	1273.6045	1288.8687	1313.0854	1362.9066	1392.9638	1402.0576	1477.5957	1482.2365	1494.5671	1498.8847	1688.9225	3012.8368	3020.9411	3026.3319	3045.883	3057.9229	3089.4088	3113.142	3178.982	3204.4671	3804.4432
CC1(O)CC=CC1	C[C@@]1(O)CC=CC1	
InChI=1S/C6H10O/c1-6(7)4-2-3-5-6/h2-3,7H,4-5H2,1H3	InChI=1S/C6H10O/c1-6(7)4-2-3-5-6/h2-3,7H,4-5H2,1H3
