18
gdb 1471	6.47102	1.26155	1.14167	4.0941	68.29	-0.3142	0.0351	0.3493	1053.8927	0.159135	-289.872246	-289.863729	-289.862785	-289.905125	30.173	
C	-0.0888684452	 1.5478372039	 0.0871793115	-0.395983
C	 0.0079335795	 0.0233106462	-0.0226669872	-0.172334
C	 0.7772620832	-0.4782947194	-1.2581203114	 0.041227
C	 2.2504789116	-0.0529100342	-1.2604083018	-0.400145
C	 0.645219201	-2.0196229636	-1.3425021954	-0.345104
C	 1.2245847109	-2.5845254053	-2.5592386503	 0.262309
N	 1.6838120716	-3.0133483719	-3.5294316973	-0.314633
H	 0.892629372	 2.012201047	 0.2191704405	 0.124034
H	-0.5452763608	 1.9805416053	-0.8100133046	 0.119101
H	-0.7053505099	 1.835122215	 0.9442128905	 0.118668
H	 0.482424281	-0.3815996486	 0.8821772378	 0.09778
H	-1.0066564131	-0.3952423573	-0.0470654698	 0.096145
H	 0.2947963466	-0.0619098107	-2.1525230922	 0.093877
H	 2.775377055	-0.4556076734	-2.1314061655	 0.142397
H	 2.3505820638	 1.0349282716	-1.2873961346	 0.123836
H	 2.7629936703	-0.4148349351	-0.3606544177	 0.114703
H	 1.1347881977	-2.4842524295	-0.4773075232	 0.147295
H	-0.4106733852	-2.31024371	-1.2998040593	 0.146825
73.3132	101.5634	136.9776	223.5217	256.5447	271.2345	343.0929	398.6652	400.6423	423.6228	561.1344	778.7787	827.2065	885.2086	895.6204	961.1382	979.171	1013.011	1051.7143	1129.1069	1147.9079	1181.853	1244.6797	1286.7506	1310.0492	1352.8884	1378.3343	1384.311	1415.4977	1418.4645	1463.4622	1484.5351	1498.183	1499.1127	1507.4816	1513.8482	2359.119	3007.9135	3017.323	3031.882	3036.5688	3037.1931	3046.0452	3075.7275	3102.9205	3103.4087	3112.2072	3123.3367
CCC(C)CC#N	CC[C@@H](C)CC#N	
InChI=1S/C6H11N/c1-3-6(2)4-5-7/h6H,3-4H2,1-2H3	InChI=1S/C6H11N/c1-3-6(2)4-5-7/h6H,3-4H2,1-2H3/t6-/m1/s1
