17
gdb 1357	3.39543	2.24911	2.0787	1.9606	60.43	-0.2271	0.0562	0.2832	750.2223	0.146016	-346.833711	-346.825409	-346.824464	-346.865542	30.591	
C	-0.0402097889	 1.5397441427	 0.0295924497	-0.438554
C	 0.0159310572	 0.0264326868	-0.0006076674	 0.245453
C	-1.2327419226	-0.6495139511	-0.5345446863	-0.450807
C	 1.3441841262	-0.6620595282	-0.2924606048	 0.062487
O	 2.513524155	 0.0807581581	-0.4515547404	-0.435057
C	 0.7471097604	-0.715489396	 1.0982574142	-0.006255
O	 1.4065428437	 0.0727618207	 2.0628687277	-0.429817
H	 0.9046263198	 1.9803272675	 0.3485469059	 0.121743
H	-0.2685983228	 1.9270862756	-0.9694844795	 0.115265
H	-0.8227375616	 1.888074607	 0.7126477174	 0.114413
H	-1.4460772589	-0.3181315969	-1.5573079809	 0.119602
H	-1.1259278291	-1.7393705563	-0.5563196728	 0.110148
H	-2.1067105079	-0.4145701343	 0.0847644605	 0.11668
H	 1.3389339966	-1.5497609338	-0.9197011197	 0.091661
H	 2.7065551708	 0.4602063996	 0.4172641666	 0.282559
H	 0.310153028	-1.6344390291	 1.4855626361	 0.084794
H	 2.0282241441	-0.4970120124	 2.5292820436	 0.295685
106.7495	176.4535	210.8552	218.8207	270.7282	279.6327	292.7508	344.0843	487.0755	502.4463	520.0619	656.4015	703.2909	826.0977	846.2261	974.82	997.9996	1015.0424	1024.1871	1081.5847	1130.7672	1164.2274	1182.0566	1226.7767	1266.4419	1324.561	1332.0243	1407.0265	1409.3881	1423.2713	1466.88	1478.9518	1489.5246	1499.3756	1512.9915	3019.3158	3034.9925	3082.4736	3089.8553	3091.3576	3109.1761	3139.595	3143.1429	3733.9415	3799.9746
CC1(C)C(O)C1O	CC1(C)[C@@H](O)[C@H]1O	
InChI=1S/C5H10O2/c1-5(2)3(6)4(5)7/h3-4,6-7H,1-2H3	InChI=1S/C5H10O2/c1-5(2)3(6)4(5)7/h3-4,6-7H,1-2H3/t3-,4+
