16
gdb 1981	6.30064	1.67762	1.44885	2.1399	61.95	-0.261	0.0337	0.2946	866.8092	0.135873	-325.770105	-325.762584	-325.76164	-325.801999	27.037	
C	-0.1237860116	 1.3957021042	-0.0858338714	-0.441907
C	 0.006973	-0.0960583618	 0.0169025459	 0.403232
N	 0.5196526247	-0.6661729096	 1.0251508896	-0.5168
O	-0.5040457874	-0.6839423336	-1.111442927	-0.245039
C	-0.52577747	-2.0866769646	-1.1563420813	 0.118468
C	-0.4848036116	-2.6878098474	-2.5228518895	-0.29197
C	 0.7099389266	-2.8233339832	-1.6020287445	-0.282938
H	 0.4009265434	 1.7606435226	-0.9743944484	 0.136784
H	-1.1758123458	 1.6777026288	-0.1935244334	 0.138538
H	 0.2933634885	 1.8609804013	 0.8059655344	 0.146936
H	 0.5444367967	-1.6797831808	 0.917943786	 0.219436
H	-1.1637898255	-2.5374061755	-0.3997449024	 0.107675
H	-1.0988932167	-3.5593522862	-2.7172307072	 0.121875
H	-0.3970828146	-1.9953403163	-3.3518871006	 0.131709
H	 1.5818353467	-2.2207166012	-1.8283919698	 0.132356
H	 0.9253416068	-3.7892560266	-1.1586989103	 0.121645
86.1931	100.5673	145.3421	191.0066	346.5716	400.4883	444.0643	565.1779	603.3873	755.618	814.2724	825.2592	886.9846	897.6067	974.8195	995.4907	1040.277	1061.4679	1075.3856	1077.5452	1112.6044	1133.6096	1190.9314	1194.5017	1238.6371	1323.7251	1390.9101	1416.1454	1455.5393	1474.6036	1477.9417	1496.7842	1742.0939	3050.5421	3107.9194	3131.8387	3140.2467	3146.3715	3169.6527	3225.3176	3239.4996	3494.2079
CC(=N)OC1CC1	C[C]([NH])OC1CC1	
InChI=1S/C5H9NO/c1-4(6)7-5-2-3-5/h5-6H,2-3H2,1H3	InChI=1S/C5H9NO/c1-4(6)7-5-2-3-5/h5-6H,2-3H2,1H3
