19
gdb 1977	7.02721	1.42119	1.31443	1.0893	68.5	-0.2433	0.0869	0.3303	983.4652	0.170887	-310.904876	-310.896892	-310.895948	-310.937038	29.118	
C	 0.1549910569	 1.3387706462	 0.1301088953	-0.239356
O	-0.3071574616	 0.0665823578	-0.2612836681	-0.239452
C	 0.5024931319	-0.541435223	-1.2316330526	 0.171796
C	 1.868416065	-1.1539373467	-0.8064878959	-0.268193
C	 1.5321396063	-2.3810048013	-1.7035940225	 0.052207
C	 1.9073712109	-3.7722289096	-1.2175940153	-0.402963
C	 0.038631155	-1.9451501343	-1.6598100488	-0.270792
H	 1.1548953117	 1.2923420903	 0.5876919612	 0.106311
H	 0.2006451336	 2.0355776423	-0.7223174665	 0.101496
H	-0.5501093072	 1.7304401035	 0.8674247169	 0.124665
H	 0.6272802884	 0.1285539272	-2.097886794	 0.059102
H	 2.7851090742	-0.5961172898	-1.012963488	 0.090984
H	 1.8399212694	-1.4239115122	 0.2547440402	 0.102103
H	 1.933904995	-2.22091068	-2.7105336663	 0.070378
H	 1.5153519754	-3.9546957211	-0.2106277964	 0.112358
H	 1.5027772997	-4.5475239378	-1.878179225	 0.113525
H	 2.9949778565	-3.9016986643	-1.1805123004	 0.11278
H	-0.4876821573	-2.4246590337	-0.8282958192	 0.108133
H	-0.5638669138	-2.0368301535	-2.5662895646	 0.094917
79.0927	106.273	190.8617	225.0381	256.634	306.7021	402.5683	436.1433	457.472	586.8075	773.1263	809.9506	887.7087	921.2118	953.7341	965.1003	1019.6576	1057.4551	1111.5275	1139.0384	1155.177	1174.2154	1184.0591	1221.5329	1226.2933	1257.3053	1267.2785	1271.9886	1311.8255	1371.7979	1396.5126	1412.1876	1469.8688	1481.5101	1486.4029	1494.9987	1496.6372	1501.5472	1510.0989	2964.1491	2973.642	3017.7845	3022.1606	3036.4102	3046.6859	3057.1601	3088.897	3091.7705	3107.0742	3112.2159	3115.4468
COC1CC(C)C1	CO[C@H]1C[C@@H](C)C1	
InChI=1S/C6H12O/c1-5-3-6(4-5)7-2/h5-6H,3-4H2,1-2H3	InChI=1S/C6H12O/c1-5-3-6(4-5)7-2/h5-6H,3-4H2,1-2H3/t5-,6+
