14
gdb 666	6.35478	3.46444	3.31917	1.6332	52.65	-0.2325	0.0823	0.3148	493.3705	0.120159	-270.384937	-270.379379	-270.378435	-270.413623	20.81	
C	-0.0068260244	 1.5513251533	 0.0049388824	-0.417923
C	 0.0628169952	 0.0429850668	-0.0671738105	-0.017173
C	 0.6550737378	-0.750111317	-1.2231013086	-0.146483
C	 1.9427597724	-0.0921404235	-1.7064038211	-0.087741
O	 2.4677076527	-0.024871396	-0.352757241	-0.282446
C	 1.325882657	-0.738131097	 0.1353464809	 0.086195
H	 0.9623402538	 1.9961294322	-0.2330254909	 0.13689
H	-0.7545965984	 1.9532205263	-0.6869602054	 0.114239
H	-0.2768099708	 1.8753547413	 1.015613331	 0.117298
H	-0.8011978255	-0.4758945622	 0.3455068266	 0.087868
H	 0.1181701913	-1.5351368353	-1.7384263017	 0.095397
H	 2.5634968774	-0.7539046878	-2.3208524266	 0.109317
H	 1.8759750906	 0.8944818037	-2.1800806399	 0.104453
H	 1.4966067011	-1.5021345948	 0.8857622748	 0.100109
171.9185	252.0283	256.6591	434.2292	594.4888	723.2657	763.1454	804.1508	875.0798	949.7201	971.847	981.4339	1010.7575	1050.6626	1062.9002	1079.4998	1109.3714	1143.452	1165.9385	1199.0187	1261.1026	1317.5262	1351.6634	1411.0838	1439.5766	1493.0269	1502.5299	1519.2901	3023.874	3036.401	3070.5922	3093.9948	3117.6451	3131.956	3172.4625	3201.3965
CC1C2COC12	C[C@H]1[C@H]2CO[C@@H]12	
InChI=1S/C5H8O/c1-3-4-2-6-5(3)4/h3-5H,2H2,1H3	InChI=1S/C5H8O/c1-3-4-2-6-5(3)4/h3-5H,2H2,1H3/t3-,4+,5-/m0/s1
