12
gdb 4270	4.13388	1.989	1.35416	5.8927	57.77	-0.2651	-0.0524	0.2127	835.9453	0.084112	-414.714284	-414.70749	-414.706546	-414.746188	23.673	
C	-0.0217085615	 1.4901146017	 0.0816854563	-0.472218
C	-0.0067356763	 0.0054709503	-0.0571724895	 0.411994
N	-0.1051429285	-0.6100663296	-1.1649330803	-0.322505
C	-0.0780954037	-2.0301558741	-1.1710218992	 0.394956
O	-0.1675304515	-2.6507533479	-2.19354869	-0.306907
N	 0.0594640411	-2.6956488647	 0.0836163427	-0.283907
C	 0.148729999	-1.9754287326	 1.1198196925	 0.129941
O	 0.126910184	-0.615361291	 1.1634373371	-0.200046
H	 0.9047744294	 1.8329929651	 0.5532405383	 0.159298
H	-0.1284893916	 1.9426075885	-0.9026849037	 0.170127
H	-0.8495332419	 1.79897343	 0.7279120441	 0.159297
H	 0.2561188416	-2.3896351756	 2.1191361817	 0.15997
46.7796	123.539	189.9612	318.3396	424.9369	540.8068	545.3739	583.553	608.0845	775.8444	836.1756	876.4591	917.3964	982.7343	991.0303	1064.7265	1087.9909	1214.8034	1279.7967	1406.1063	1408.6604	1466.0353	1473.1077	1644.3159	1750.4946	1842.3407	3051.7707	3111.4132	3177.415	3180.6947
CC1=NC(=O)N=CO1	Cc1nc(=O)nco1	
InChI=1S/C4H4N2O2/c1-3-6-4(7)5-2-8-3/h2H,1H3	InChI=1S/C4H4N2O2/c1-3-6-4(7)5-2-8-3/h2H,1H3
