14
gdb 3299	6.03237	2.11367	1.87542	2.1816	63.19	-0.2318	0.0504	0.2822	698.9296	0.113731	-287.353473	-287.347227	-287.346283	-287.38337	24.035	
C	 0.0081777059	-1.2509780453	-0.1022413322	-0.47062
C	 0.0231678045	-0.0516431459	-0.0183543304	 0.349403
C	 0.0227827598	 1.3949189747	 0.07255948	-0.172524
C	-0.2194985441	 2.0859584455	 1.4783463054	-0.234953
C	 1.1121329919	 2.8195535536	 1.2978092016	-0.043625
N	 2.1447329214	 1.7603273789	 1.2002573929	-0.318913
C	 1.3716819453	 2.1424262126	-5.612*^-7	-0.05467
H	 0.0093288604	-2.3105156471	-0.1685171749	 0.192483
H	-0.6731639489	 1.8162124292	-0.6595532577	 0.104226
H	-1.0958958216	 2.7361321792	 1.4647091518	 0.106905
H	-0.2622527664	 1.4114693751	 2.3348104871	 0.119993
H	 1.3683953367	 3.8197031425	 1.6234870954	 0.096094
H	 3.0502109723	 2.2236853012	 1.1272760234	 0.229801
H	 1.8670408728	 2.4905584957	-0.8978965611	 0.0964
126.4546	170.705	305.1606	421.9343	493.6016	581.8609	614.2404	629.0916	680.8839	789.4853	817.7389	842.3602	909.4916	951.4459	974.9809	990.0662	1038.9836	1075.5401	1102.7143	1117.8028	1157.8738	1197.17	1246.1566	1279.3427	1319.322	1350.113	1382.3506	1475.4311	2235.7001	3057.9682	3079.3826	3141.6013	3185.8227	3200.1063	3474.2285	3505.0192
C#CC1CC2NC12	C#C[C@H]1C[C@H]2N[C@@H]12	
InChI=1S/C6H7N/c1-2-4-3-5-6(4)7-5/h1,4-7H,3H2	InChI=1S/C6H7N/c1-2-4-3-5-6(4)7-5/h1,4-7H,3H2/t4-,5+,6-/m0/s1
