14
gdb 3768	3.94842	3.32825	1.84784	4.8814	59.28	-0.2455	0.0071	0.2526	674.6334	0.114432	-320.766344	-320.759525	-320.758581	-320.797188	23.725	
C	 0.0234939752	 1.4426493359	 0.0107668796	-0.333339
N	 0.0055720033	-0.0030614627	 0.0661884286	 0.010463
N	-0.035307945	-0.7204785962	-1.0814674618	-0.153124
N	-0.0430405811	-1.979211902	-0.7547915272	-0.191586
C	-0.0075279418	-2.0822475117	 0.6006571772	-0.145788
C	 0.0243204536	-0.8204007996	 1.1518972955	 0.311497
C	 0.069487743	-0.3330454454	 2.5599792868	-0.503094
H	 0.9331994255	 1.8403893951	 0.4708139898	 0.143825
H	-0.002996367	 1.7238605936	-1.0417753659	 0.171796
H	-0.8472482368	 1.8643207614	 0.5220278315	 0.143807
H	-0.0067410578	-3.0384523669	 1.0995512677	 0.118499
H	 0.9686174004	 0.2617741083	 2.7587113738	 0.13978
H	-0.7973003232	 0.2917380589	 2.8049456818	 0.139672
H	 0.0730946419	-1.1818619789	 3.2467672727	 0.147591
112.4059	123.4631	219.0006	246.7956	264.2055	420.818	652.6916	660.4259	716.6444	733.4515	840.954	980.7503	998.7419	1036.2809	1064.5178	1145.1122	1151.5254	1215.1467	1274.2864	1308.109	1346.3817	1419.5585	1441.4661	1465.2964	1478.6767	1488.9929	1501.0818	1514.9235	1597.096	3028.4278	3043.3805	3077.8413	3104.6749	3129.7389	3163.4439	3263.5325
CN1N=NC=C1C	Cn1nncc1C	
InChI=1S/C4H7N3/c1-4-3-5-6-7(4)2/h3H,1-2H3	InChI=1S/C4H7N3/c1-4-3-5-6-7(4)2/h3H,1-2H3
