17
gdb 4778	5.64006	1.27039	1.12226	1.046	71.27	-0.2268	0.0137	0.2405	1107.1733	0.14229	-363.915636	-363.907486	-363.906542	-363.948859	29.031	
C	 0.0585324238	 1.4849562455	 0.2489009443	-0.378786
C	-0.0475042532	-0.0090834095	-0.101489104	-0.287035
C	-1.4527351701	-0.5030130464	-0.1419301848	 0.383676
N	-2.1207774463	-0.9613304631	-1.1534103392	-0.345698
C	-3.3847206183	-1.2693058105	-0.6468488466	 0.248795
C	-4.4629342013	-1.8331306413	-1.5085418347	-0.491186
C	-3.397084957	-0.9667839195	 0.6724714465	-0.123797
O	-2.16518559	-0.4734822543	 1.0148351762	-0.177872
H	 1.1063658742	 1.7970756609	 0.2765516559	 0.118429
H	-0.4610767893	 2.0978068254	-0.4935163618	 0.129327
H	-0.3845855773	 1.6887956516	 1.2274680742	 0.132426
H	 0.3871953743	-0.2077673538	-1.0838767396	 0.134467
H	 0.5180375605	-0.5967640836	 0.6320579242	 0.121864
H	-4.1504109102	-2.7837582958	-1.9535109025	 0.137968
H	-5.3763490402	-2.0062570956	-0.9335632387	 0.122003
H	-4.6990600885	-1.1532360274	-2.3339954098	 0.137702
H	-4.1270209211	-1.0304660324	 1.4610202403	 0.137716
40.6347	126.3065	144.1997	199.9973	257.3458	281.4132	372.2434	432.9978	604.5698	651.9769	716.6982	743.7307	751.6132	795.7305	953.0709	973.8814	995.1879	1026.7135	1067.6856	1079.2111	1100.031	1134.7023	1220.1364	1272.5516	1296.5128	1343.5341	1370.885	1409.6825	1417.9822	1473.4885	1475.2123	1491.0169	1497.4841	1506.6821	1617.833	1644.1549	3036.7519	3037.2373	3044.627	3092.786	3104.6363	3117.4497	3120.1949	3127.7332	3289.46
CCC1=NC(C)=CO1	CCc1nc(C)co1	
InChI=1S/C6H9NO/c1-3-6-7-5(2)4-8-6/h4H,3H2,1-2H3	InChI=1S/C6H9NO/c1-3-6-7-5(2)4-8-6/h4H,3H2,1-2H3
