16
gdb 1958	7.31115	1.54713	1.40089	4.3386	63.33	-0.2386	0.0278	0.2664	879.5528	0.136847	-325.790782	-325.783318	-325.782374	-325.823431	25.699	
C	 0.2207591439	 1.5380082204	 0.0604565017	-0.402965
C	-0.0842909876	 0.0497518751	-0.0042117671	 0.016283
C	 0.8208250675	-0.8084175869	-0.9463028877	-0.192604
N	 1.2188795099	-1.5916343238	 0.2245952775	-0.03019
C	 0.429724016	-0.8229504221	 1.1845587753	-0.180106
C	 2.0895053307	-2.6027260167	 0.4222926673	 0.12982
O	 2.3370700511	-3.0975455402	 1.5039829076	-0.333298
H	 1.2840709805	 1.713990425	 0.2577559602	 0.12367
H	-0.0330745086	 2.0353558371	-0.8817064113	 0.121802
H	-0.3518256502	 2.0221296771	 0.858540694	 0.124907
H	-1.1460146298	-0.1131161366	-0.2027686593	 0.088338
H	 0.2954428693	-1.3825309804	-1.7175127087	 0.115447
H	 1.6433773163	-0.2540350008	-1.4149826866	 0.112779
H	 1.0395077081	-0.290588846	 1.9236772471	 0.119773
H	-0.3233832625	-1.415817144	 1.7130831155	 0.122233
H	 2.5560995854	-2.9383051072	-0.5278713456	 0.06411
30.015	90.2628	178.5501	246.0916	301.1701	345.1614	394.1031	533.31	743.1937	819.3808	893.2179	894.3543	926.722	948.5596	1034.71	1085.5406	1123.7147	1146.5083	1156.7784	1195.2651	1215.2339	1276.3945	1288.6026	1318.9111	1372.5441	1402.5559	1414.8111	1452.9493	1495.6154	1496.9029	1509.417	1527.0973	1790.99	2912.3076	3017.3748	3029.0084	3036.2499	3060.7079	3074.2412	3084.6924	3100.7591	3104.7598
CC1CN(C1)C=O	CC1CN(C1)C=O	
InChI=1S/C5H9NO/c1-5-2-6(3-5)4-7/h4-5H,2-3H2,1H3	InChI=1S/C5H9NO/c1-5-2-6(3-5)4-7/h4-5H,2-3H2,1H3
