13
gdb 694	6.88853	3.57139	3.00581	1.7907	49.2	-0.235	0.0621	0.2971	480.0539	0.108991	-286.432515	-286.427104	-286.426159	-286.461069	20.301	
O	-0.0942443559	 1.4711004101	-0.0382795179	-0.430353
C	-0.0253792073	 0.0638364405	 0.0242216105	 0.106621
C	 0.2051657544	-0.6403681742	 1.3949552178	-0.201041
N	-1.0920502132	-1.3976580041	 1.2788105801	-0.12802
C	-2.1341525357	-0.3588542816	 1.2369331406	-0.230562
C	-1.3792635802	-0.6210657319	-0.0036559825	-0.030101
H	 0.8033539892	 1.8180724935	-0.0600340279	 0.28448
H	 0.6464739274	-0.3357274866	-0.7458726236	 0.077878
H	 1.0507487887	-1.3313026537	 1.4087668798	 0.107594
H	 0.2530562861	 0.0211156546	 2.2662641889	 0.104629
H	-3.1392310294	-0.7647714862	 1.2950066202	 0.12073
H	-1.9812620835	 0.5726497782	 1.7762764477	 0.123963
H	-1.8279012707	-1.0929699886	-0.8712756036	 0.094183
165.6085	272.5855	348.4768	452.7784	549.934	701.0545	755.8582	784.7962	867.1977	948.5139	976.9025	994.3863	1046.2831	1068.9276	1110.754	1116.7968	1154.4462	1195.4719	1206.6181	1242.0648	1281.1257	1313.2455	1375.22	1436.2551	1483.8848	1506.8894	3021.1099	3047.1776	3112.9548	3114.3224	3169.2647	3204.9228	3815.8774
OC1CN2CC12	O[C@H]1CN2C[C@@H]12	
InChI=1S/C4H7NO/c6-4-2-5-1-3(4)5/h3-4,6H,1-2H2	InChI=1S/C4H7NO/c6-4-2-5-1-3(4)5/h3-4,6H,1-2H2/t3-,4-,5?/m0/s1
