17
gdb 3586	4.62155	3.03741	2.43263	0.3157	65.87	-0.2409	0.0817	0.3226	627.5276	0.151376	-272.562906	-272.557364	-272.55642	-272.591766	23.299	
C	-0.0581473812	 1.4795509094	 0.0713604519	-0.294916
C	 1.3020712623	 0.8286003151	 0.0321784983	-0.025052
C	 2.0423436875	 0.5288369691	 1.3415774836	-0.245595
C	 1.2236938441	-0.5319874833	 2.0877970227	-0.02505
C	-0.1545327382	-0.1935443834	 2.5990892064	-0.294917
C	-0.0002101607	-0.8619434334	 1.2536601665	-0.029761
C	 0.0480175835	-0.0246599691	-0.0113107101	-0.029759
H	-0.4040877687	 1.947127244	 0.9860942125	 0.109427
H	-0.3781511651	 2.0003119232	-0.8255795526	 0.104702
H	 1.9039883471	 0.9843464671	-0.8569759725	 0.079341
H	 3.031170024	 0.1193046878	 1.108216772	 0.100493
H	 2.2105708024	 1.4296545606	 1.944230018	 0.100084
H	 1.7718309034	-1.3097858986	 2.6090767308	 0.079342
H	-0.5396401516	-0.8033456469	 3.410218754	 0.104702
H	-0.4677430431	 0.8427260492	 2.6546126244	 0.109427
H	-0.3512027784	-1.8824668788	 1.1506845602	 0.078766
H	-0.2719557273	-0.5063994521	-0.9282689661	 0.078766
248.5782	254.2816	411.3734	483.5287	660.7963	672.4736	714.8844	778.7387	819.084	820.4082	848.3744	867.8454	920.3236	970.374	981.1712	1025.2207	1036.6244	1047.4964	1054.1787	1079.05	1104.2855	1109.9015	1112.1415	1130.7666	1191.1901	1219.7039	1223.9842	1302.2439	1313.6935	1357.1378	1381.496	1386.7737	1478.045	1487.3685	1508.7528	3031.2917	3067.0207	3129.2726	3134.8162	3154.8593	3157.9227	3164.23	3177.8498	3210.0052	3216.7998
C1C2CC3CC3C12	C1[C@H]2C[C@H]3C[C@H]3[C@@H]12	
InChI=1S/C7H10/c1-4-2-6(4)7-3-5(1)7/h4-7H,1-3H2	InChI=1S/C7H10/c1-4-2-6(4)7-3-5(1)7/h4-7H,1-3H2/t4-,5+,6+,7-
