11
gdb 4237	4.52719	2.16775	2.04909	1.23	39.65	-0.2713	0.0825	0.3538	638.1165	0.075851	-470.915515	-470.909362	-470.908418	-470.94603	21.872	
F	-0.2328649037	 0.0736885416	-0.1302492673	-0.090547
C	-0.0729648154	 1.4015862282	 0.0250526879	 0.273233
F	 1.2404308185	 1.631392779	 0.1674481259	-0.073533
F	-0.4602672821	 1.9954112666	-1.1121712181	-0.070267
C	-0.8514618859	 1.9169386867	 1.2046369016	-0.132397
C	-2.1560001687	 1.2936469961	 1.5304295761	-0.235598
N	-0.9887838738	 1.0852570408	 2.4013649927	-0.311233
H	-0.6807922485	 2.9744404017	 1.3843847719	 0.125227
H	-2.9437004364	 1.9084190645	 1.9537963273	 0.133098
H	-2.4923256913	 0.4718585831	 0.9061571065	 0.135296
H	-0.5928117528	 0.1644936316	 2.2251941255	 0.24672
79.8829	220.2471	250.3728	386.944	431.9658	528.2187	585.8127	644.1151	785.8155	862.6393	905.6197	967.0935	1011.8577	1106.9303	1139.806	1164.3368	1192.2003	1210.6251	1272.692	1283.2063	1307.1588	1438.9264	1508.6822	3126.4611	3160.7532	3216.6368	3505.8049
FC(F)(F)C1CN1	FC(F)(F)[C@H]1CN1	
InChI=1S/C3H4F3N/c4-3(5,6)2-1-7-2/h2,7H,1H2	InChI=1S/C3H4F3N/c4-3(5,6)2-1-7-2/h2,7H,1H2/t2-/m1/s1
