10
gdb 1022	9.42679	2.00693	1.65466	7.3289	54.88	-0.2538	-0.0199	0.2339	670.6291	0.070003	-318.40967	-318.404343	-318.403399	-318.438795	19.222	
N	 0.0281611933	-1.1409478111	-0.0039120673	-0.338675
C	 0.0171016757	 0.0164485973	 0.0025257979	 0.220017
C	-0.0286077009	 1.436170677	 0.011032811	 0.184588
C	-1.1597083466	 2.2217426683	 0.0306812347	-0.1602
N	-0.6960736367	 3.5081407617	 0.0315561495	-0.226045
C	 0.6707557602	 3.4535970815	 0.0127692598	 0.018922
N	 1.1090197142	 2.2214437854	 0.0000358377	-0.290714
H	-2.2081502712	 1.9777548738	 0.04349332	 0.161142
H	-1.263124916	 4.340161711	 0.0438316982	 0.281895
H	 1.2828806181	 4.342683485	 0.0094252985	 0.149068
180.9099	181.3868	513.5109	564.2532	571.9146	579.295	660.7431	713.0508	782.1726	839.9414	949.2807	976.5869	1100.5834	1127.282	1243.6971	1284.7299	1356.7444	1437.678	1534.1332	1565.165	2354.6017	3260.2256	3288.9997	3660.8104
N#CC1=CNC=N1	N#Cc1c[nH]cn1	
InChI=1S/C4H3N3/c5-1-4-2-6-3-7-4/h2-3H,(H,6,7)	InChI=1S/C4H3N3/c5-1-4-2-6-3-7-4/h2-3H,(H,6,7)
