19
gdb 4771	5.41812	1.18738	1.05593	1.6867	79.98	-0.1898	0.0512	0.241	1188.3876	0.166056	-327.978773	-327.970106	-327.969162	-328.012337	31.712	
C	 0.2071122758	 1.5294742176	 0.2516555359	-0.363767
C	-0.1058279046	 0.05701598	-0.0729252535	-0.297669
C	 0.562445568	-0.4471462134	-1.3133820471	 0.331246
C	 0.0533195186	-0.7609985966	-2.5543374429	-0.330197
C	 1.1307966594	-1.1745485689	-3.3965247613	 0.295222
C	 1.041407194	-1.6116472316	-4.8277969653	-0.499276
C	 2.2720788103	-1.097958409	-2.6326780234	-0.185464
N	 1.9206143817	-0.6570137591	-1.3776821766	-0.300882
H	 1.2799816513	 1.6855169442	 0.4071756721	 0.107337
H	-0.104281426	 2.181102929	-0.5700615895	 0.12543
H	-0.3113671629	 1.8493844219	 1.1612969734	 0.110608
H	 0.1714920312	-0.567762002	 0.7878328641	 0.098994
H	-1.186328447	-0.0650030111	-0.1988431545	 0.113984
H	-0.9894744793	-0.7019565879	-2.8320820309	 0.080372
H	 0.6320807698	-0.8231346365	-5.4707610569	 0.120215
H	 2.0269499204	-1.8777130586	-5.2219327112	 0.114217
H	 0.3921042499	-2.4873784232	-4.9467108803	 0.120445
H	 3.2980985774	-1.3242037658	-2.8776341483	 0.106627
H	 2.5599796721	-0.520105279	-0.6146641438	 0.25256
45.3337	108.5918	132.3799	196.0657	251.6073	275.9442	361.7065	401.539	465.9642	581.1029	639.454	685.4978	708.2197	718.9693	781.9518	806.0875	948.155	986.6862	1000.3211	1009.2596	1061.4927	1064.1649	1083.241	1136.7967	1173.4469	1253.6884	1298.0969	1314.1258	1355.8303	1405.843	1418.6449	1422.9009	1458.8377	1482.9736	1483.5678	1495.8944	1503.8806	1504.4441	1549.2286	1637.6923	3007.1729	3020.4525	3033.1191	3066.741	3072.8287	3099.5668	3101.5551	3113.3205	3231.2676	3253.888	3680.6366
CCC1=CC(C)=CN1	CCc1cc(C)c[nH]1	
InChI=1S/C7H11N/c1-3-7-4-6(2)5-8-7/h4-5,8H,3H2,1-2H3	InChI=1S/C7H11N/c1-3-7-4-6(2)5-8-7/h4-5,8H,3H2,1-2H3
