13
gdb 2744	4.60652	2.54677	1.67495	4.5559	57.55	-0.2572	-0.0271	0.2301	704.6149	0.102631	-340.65539	-340.6489	-340.647956	-340.686019	22.75	
N	-0.0542068393	 1.2327598398	 0.4202323083	-0.531684
C	-0.040924914	 0.0197165781	 0.0942836076	 0.405859
C	-1.0990409706	-0.9681395816	-0.3887399283	-0.320707
C	 0.0398146473	-2.0331481005	-0.4453110294	-0.181793
N	 0.9619554415	-0.982930726	 0.0268046354	-0.094009
C	 2.2978925957	-0.95324443	 0.3072441497	 0.137715
O	 2.885834025	 0.0328323155	 0.694473949	-0.303497
H	 0.8803341262	 1.5408458012	 0.6939586978	 0.25184
H	-1.8892885602	-1.1715907737	 0.3352828684	 0.143058
H	-1.5459041718	-0.7148159278	-1.3511504687	 0.143057
H	-0.0656073297	-2.868893215	 0.2512043655	 0.130377
H	 0.2792810732	-2.4101223698	-1.4429391881	 0.130375
H	 2.7868731467	-1.9334016301	 0.1417255328	 0.089409
110.9274	167.3553	179.8342	250.764	447.6068	515.3029	516.9201	766.5641	797.4811	817.6002	918.1428	944.4035	989.3781	1029.5911	1060.0995	1152.1461	1154.279	1198.5868	1240.5388	1254.453	1305.7557	1393.464	1431.1335	1468.7162	1518.8823	1758.3762	1823.2842	2941.8767	3058.9316	3093.7348	3109.4744	3148.9032	3485.1764
N=C1CCN1C=O	[NH][C]1CCN1C=O	
InChI=1S/C4H6N2O/c5-4-1-2-6(4)3-7/h3,5H,1-2H2	InChI=1S/C4H6N2O/c5-4-1-2-6(4)3-7/h3,5H,1-2H2
