17
gdb 2343	6.10425	1.36597	1.23324	1.1033	61.59	-0.2444	0.0793	0.3236	993.3082	0.146899	-346.818246	-346.810113	-346.809169	-346.850984	28.62	
C	-0.0096785294	 1.3436433444	 0.1669263605	-0.222958
O	-0.0707193742	-0.0581338488	 0.2505851549	-0.233489
C	-1.289425853	-0.57767672	-0.2481917404	-0.067404
C	-1.2400069075	-2.0794823919	-0.1684181476	-0.034429
C	-1.5295515219	-2.7695080758	 1.1509078454	-0.315797
C	-2.5027302941	-2.8735905409	 0.0057277645	 0.092489
O	-3.7068788353	-2.1595433061	 0.0474232629	-0.418166
H	 0.9567516565	 1.6558475905	 0.5709897528	 0.123113
H	-0.0899553037	 1.6979590392	-0.8738827321	 0.100201
H	-0.8106448035	 1.8261593588	 0.7507028488	 0.099735
H	-2.1437350469	-0.1935581271	 0.3283895653	 0.096442
H	-1.4366799081	-0.2563000036	-1.2938890049	 0.085013
H	-0.4755320851	-2.530848489	-0.793789991	 0.09253
H	-0.9467464757	-3.6397111018	 1.4318325418	 0.1112
H	-1.8163599435	-2.1257701651	 1.9761174536	 0.116594
H	-2.5630050743	-3.8255732197	-0.5218242812	 0.086423
H	-4.2710203302	-2.5718204629	 0.7095697166	 0.288502
70.0254	97.0977	136.7059	229.5331	259.4322	298.2832	323.315	410.0138	489.9874	568.0668	773.5779	838.3031	904.3064	927.1595	972.951	1012.0869	1048.263	1072.966	1133.8762	1150.9301	1173.2527	1179.7632	1196.9103	1227.8906	1240.6721	1267.5111	1305.9953	1366.0454	1420.5791	1438.9019	1481.0656	1484.2189	1490.6857	1505.5644	1529.0551	2952.3872	2965.2472	3002.8245	3012.7947	3096.3672	3109.1416	3131.933	3154.8384	3221.0258	3809.842
COCC1CC1O	COC[C@H]1C[C@H]1O	
InChI=1S/C5H10O2/c1-7-3-4-2-5(4)6/h4-6H,2-3H2,1H3	InChI=1S/C5H10O2/c1-7-3-4-2-5(4)6/h4-6H,2-3H2,1H3/t4-,5-/m1/s1
