17
gdb 3293	4.63868	2.52217	2.06115	1.3256	63.25	-0.2489	0.0725	0.3214	689.8311	0.149584	-309.687401	-309.680887	-309.679943	-309.717694	25.295	
O	-0.1366746156	 1.463380238	 0.1894038599	-0.43008
C	-0.013379398	 0.0659764556	 0.0432833462	 0.140175
C	 0.3636275644	-0.796885728	 1.2883615673	-0.280712
C	-0.8658054496	-1.712615016	 1.0118379462	-0.006954
C	-2.1040083369	-1.3889010729	 1.8774474963	-0.21758
C	-2.4559155578	-0.2106935767	 0.9189014811	-0.227372
C	-1.3530616965	-0.6805468827	-0.0745446522	-0.032674
H	 0.7426527139	 1.8329871148	 0.3168737116	 0.28215
H	 0.6378258125	-0.1820313478	-0.8080268574	 0.061943
H	 1.3425867728	-1.2804190063	 1.2437567713	 0.093494
H	 0.2884646865	-0.2425955471	 2.2291537967	 0.097486
H	-0.6449893981	-2.7571901412	 0.7902232644	 0.059303
H	-2.853853258	-2.1846092341	 1.845181265	 0.095451
H	-1.9123000325	-1.1422035391	 2.9266437186	 0.091206
H	-3.4703108157	-0.2368167127	 0.5159536696	 0.096954
H	-2.2726670437	 0.787418397	 1.3210228048	 0.118803
H	-1.6885743177	-0.9577568808	-1.0746001692	 0.058407
87.6436	227.0818	250.1204	347.682	390.8074	530.0205	593.8139	731.6425	747.1526	781.3715	841.6508	891.101	895.9029	944.7672	954.9065	1007.7872	1042.6005	1050.4789	1089.8826	1130.8359	1142.2507	1188.4815	1208.2268	1217.5262	1240.8254	1248.6218	1263.8461	1287.0953	1304.402	1323.954	1338.829	1419.4886	1475.1825	1480.0463	1498.1912	2981.9758	3042.7097	3049.1545	3073.6443	3086.2715	3093.372	3099.4709	3110.8698	3129.4622	3818.4549
OC1CC2CCC12	O[C@H]1C[C@H]2CC[C@@H]12	
InChI=1S/C6H10O/c7-6-3-4-1-2-5(4)6/h4-7H,1-3H2	InChI=1S/C6H10O/c7-6-3-4-1-2-5(4)6/h4-7H,1-3H2/t4-,5-,6+/m1/s1
