11
gdb 90	10.79571	4.78732	3.54292	2.7119	42.77	-0.2415	-0.0194	0.2222	379.6371	0.090544	-231.15578	-231.150804	-231.149859	-231.184401	17.076	
O	-0.0010174632	 0.0184662767	-0.2011474152	-0.282059
C	-0.0140581136	 1.1965805851	 0.0020530625	 0.404742
C	-1.1354291126	 2.2297914781	 0.2195798033	-0.331199
C	-0.035008842	 3.2909763694	 0.5305222254	-0.215614
C	 1.0846966382	 2.2594779453	 0.189943305	-0.331199
H	-1.7164281405	 2.4177266213	-0.6890107784	 0.132958
H	-1.8339275739	 1.9841505902	 1.024442443	 0.13153
H	-0.0553474053	 4.1758526365	-0.106709627	 0.111722
H	-0.0254147695	 3.6139904814	 1.5727891701	 0.114631
H	 1.8107438949	 2.0328853386	 0.9757897269	 0.13153
H	 1.6360080062	 2.4625537972	-0.7337624355	 0.132958
36.2524	407.3656	459.0546	619.6329	675.0895	735.4512	841.363	926.0755	945.0386	971.4319	1074.9381	1096.5298	1185.7097	1221.0389	1225.0397	1240.5437	1271.2012	1427.5262	1443.1877	1495.777	1895.2464	3055.0194	3059.0672	3084.8446	3103.5946	3109.4957	3138.5571
O=C1CCC1	O=C1CCC1	
InChI=1S/C4H6O/c5-4-2-1-3-4/h1-3H2	InChI=1S/C4H6O/c5-4-2-1-3-4/h1-3H2
