15
gdb 3201	4.10431	3.46479	3.05522	2.4849	55.12	-0.2475	0.0878	0.3353	552.7923	0.128648	-345.659797	-345.654708	-345.653764	-345.688445	20.536	
C	-0.0071966649	 1.5640687294	-0.0135025521	-0.069286
O	 1.3869343979	 1.9417653178	-0.0288308262	-0.269494
C	 2.1031030326	 0.717263663	-0.0025645723	 0.222386
C	 1.2679275942	-0.2100167456	-0.8887623105	-0.252165
C	 0.0430618085	 0.0249555001	 0.0216581542	-0.090001
C	 0.6576580378	-0.3655363253	 1.3790194179	-0.069286
O	 2.01330808	 0.1238467338	 1.2830392688	-0.269492
H	-0.4948561196	 1.994888781	 0.8687278505	 0.104603
H	-0.5022681544	 1.9498356825	-0.9137549029	 0.09951
H	 3.1489079278	 0.9119195069	-0.2321560317	 0.092357
H	 1.1443063212	 0.1626439095	-1.9072753815	 0.108643
H	 1.627788474	-1.2405467651	-0.8946651248	 0.108643
H	-0.8899504788	-0.4781084469	-0.2299661395	 0.079468
H	 0.1541140689	 0.1114662647	 2.2279376339	 0.104603
H	 0.6694646747	-1.4509603757	 1.5405023861	 0.099512
201.3823	390.0453	477.1911	509.7046	595.7552	797.2514	823.46	855.5174	900.1537	925.2117	927.4909	953.3336	956.5501	969.5538	978.2752	1074.7397	1085.182	1114.682	1133.4162	1177.3233	1193.7111	1253.477	1272.1198	1310.462	1311.9183	1321.1891	1377.5567	1392.15	1487.1415	1519.0176	1535.1427	3015.3465	3017.4231	3056.5241	3062.4799	3077.5583	3127.9855	3138.5164	3153.9887
C1OC2CC1CO2	C1O[C@@H]2C[C@H]1CO2	
InChI=1S/C5H8O2/c1-4-2-6-5(1)7-3-4/h4-5H,1-3H2	InChI=1S/C5H8O2/c1-4-2-6-5(1)7-3-4/h4-5H,1-3H2/t4-,5+
