17
gdb 4821	4.35549	1.3967	1.09311	2.0304	73.57	-0.1877	0.0397	0.2274	1083.5379	0.142838	-363.901108	-363.892858	-363.891913	-363.93405	30.042	
C	 0.4280101871	 1.3490511031	 0.1554836606	-0.503724
C	 0.015016275	-0.0698970505	-0.0571811036	 0.301771
C	-0.5870335009	-0.6870020961	-1.1325189869	-0.218826
C	-0.7193831285	-2.0715609793	-0.8258240096	-0.243437
C	-0.2035987958	-2.2639045393	 0.4347727963	 0.320915
C	-0.1209692145	-3.4660139552	 1.3099651197	-0.207527
O	 1.1207182712	-3.4197797875	 2.0170630405	-0.426243
N	 0.2233829323	-1.0404147025	 0.8942904845	-0.323537
H	 1.5112086874	 1.4491920204	 0.3019875716	 0.125053
H	 0.1580247771	 1.9483300615	-0.7171251	 0.135055
H	-0.0606088452	 1.7977204671	 1.0296555993	 0.1236
H	-0.8925471979	-0.1942222201	-2.0434916354	 0.08505
H	-1.1523123904	-2.8370159911	-1.4524063259	 0.08537
H	-0.9564329085	-3.488337137	 2.0306940794	 0.095518
H	-0.2055991109	-4.369375195	 0.6885282355	 0.10439
H	 1.0954055351	-4.09401544	 2.7028672154	 0.288279
H	 0.7436010875	-0.9311693986	 1.7486205688	 0.258295
69.8604	111.7382	145.6332	207.9341	272.2939	306.1706	353.9139	456.5762	531.9338	613.5996	643.5474	662.5233	728.3133	782.3971	819.1046	981.8908	995.1867	1012.1224	1034.0413	1044.4189	1062.9812	1068.6328	1186.1247	1227.1726	1242.0306	1277.688	1296.8369	1416.468	1432.2472	1442.9191	1461.1494	1480.815	1504.0791	1514.356	1550.5579	1637.0777	2945.8282	3007.7123	3014.2076	3056.9502	3120.9743	3235.137	3250.4143	3670.3469	3822.9472
CC1=CC=C(CO)N1	Cc1ccc(CO)[nH]1	
InChI=1S/C6H9NO/c1-5-2-3-6(4-8)7-5/h2-3,7-8H,4H2,1H3	InChI=1S/C6H9NO/c1-5-2-3-6(4-8)7-5/h2-3,7-8H,4H2,1H3
