12
gdb 4715	5.34552	1.50208	1.17326	3.5915	63.56	-0.2301	-0.0514	0.1787	929.8588	0.08497	-414.708497	-414.701732	-414.700788	-414.739526	24.579	
N	 0.0793507827	 1.30765905	 0.1284283659	-0.583824
C	-0.0356027803	-0.0385537916	 0.0440199927	 0.489536
N	-1.1474099478	-0.736915696	 0.0171024345	-0.334712
C	-0.700493368	-2.0345255556	-0.007910532	-0.142928
C	 0.6650217806	-2.0768761578	-0.0004309412	 0.222644
O	 1.0970123989	-0.754265956	 0.0337911926	-0.194438
C	 1.618793055	-3.1574177759	-0.0267726907	 0.054678
O	 2.8265489176	-3.0429378908	-0.0250133433	-0.293779
H	 0.9587505456	 1.7152569525	-0.1447333623	 0.281127
H	-0.7515040234	 1.8307101526	-0.0947708857	 0.283758
H	-1.3858754196	-2.8686755461	-0.0334215227	 0.142293
H	 1.1203133288	-4.1517267152	-0.0507892378	 0.075644
133.8022	162.9731	226.8086	368.6481	379.2118	417.1109	449.5058	509.6783	629.3423	711.4076	769.5935	801.7555	898.9959	977.7163	1012.878	1013.7	1075.9256	1206.9295	1260.9245	1313.7325	1398.292	1462.8729	1578.1263	1612.5022	1675.6435	1778.5029	2885.4856	3254.1634	3606.0126	3725.3566
NC1=NC=C(O1)C=O	Nc1ncc(o1)C=O	
InChI=1S/C4H4N2O2/c5-4-6-1-3(2-7)8-4/h1-2H,(H2,5,6)	InChI=1S/C4H4N2O2/c5-4-6-1-3(2-7)8-4/h1-2H,(H2,5,6)
