14
gdb 3147	4.16533	2.76742	1.9483	2.4703	59.03	-0.233	-0.0234	0.2096	671.9779	0.113429	-324.552283	-324.545877	-324.544932	-324.582574	23.835	
O	 0.0418160269	 0.0571245575	-0.2778254334	-0.303721
C	 0.0062090195	 1.2337929069	-0.0638682516	 0.32703
C	-1.0801475851	 2.2573936601	 0.3259642311	-0.285344
N	-0.0142258594	 3.3097754057	 0.4037003651	-0.380334
C	 1.0108260755	 2.3488450555	-0.0506367507	 0.240995
C	 2.439266779	 2.2759720602	 0.4247786761	-0.293432
C	 2.1438098128	 2.5792148921	-1.0184139711	-0.324662
H	-1.837371898	 2.4068059869	-0.4522308158	 0.128652
H	-1.5817595545	 2.0701078881	 1.2805108882	 0.137745
H	-0.1711257578	 4.0457624703	-0.2776206857	 0.224124
H	 2.7712378604	 3.090611172	 1.0588319533	 0.131299
H	 2.8244006319	 1.2947409781	 0.6810989735	 0.135694
H	 2.3239784165	 1.8123231151	-1.764433846	 0.137416
H	 2.2909930722	 3.5979271315	-1.3632999332	 0.124537
109.5069	175.4532	213.0873	359.6416	458.3536	531.0846	610.0257	709.9228	758.1911	787.8362	822.0945	897.3628	939.116	970.038	1001.6404	1038.687	1048.4722	1063.6366	1075.1787	1140.8489	1195.3493	1223.9305	1296.5524	1329.134	1377.4559	1449.5541	1467.7125	1485.4824	1900.8605	3038.8905	3090.772	3126.9585	3134.4853	3213.2648	3232.0919	3516.7309
O=C1CNC11CC1	O=C1CNC21CC2	
InChI=1S/C5H7NO/c7-4-3-6-5(4)1-2-5/h6H,1-3H2	InChI=1S/C5H7NO/c7-4-3-6-5(4)1-2-5/h6H,1-3H2
