15
gdb 1358	3.43041	2.30436	2.1097	0.9839	53.19	-0.2236	0.0508	0.2745	707.3996	0.122297	-382.757521	-382.749529	-382.748585	-382.788967	29.487	
C	-0.0410302002	 1.5799824555	 0.012361085	-0.435949
C	 0.0124912143	 0.0725580172	 0.0126398443	 0.297547
O	-1.1658252627	-0.5763831771	-0.3987465815	-0.45859
C	 1.3119396134	-0.6673275971	-0.2807983744	 0.022191
O	 2.5052790817	 0.0340929226	-0.4442637337	-0.429891
C	 0.7012245702	-0.6904765211	 1.110886267	-0.000791
O	 1.3751221875	 0.0715460798	 2.0819789574	-0.428851
H	 0.903048025	 2.0148548795	 0.3426073945	 0.127582
H	-0.2422715336	 1.9488571756	-1.0003465616	 0.109432
H	-0.8391629654	 1.933449212	 0.6718116175	 0.126761
H	-1.2589110434	-0.4341464226	-1.3480086423	 0.28162
H	 1.25192346	-1.5618012781	-0.8949726395	 0.100499
H	 2.7297369594	 0.3843378024	 0.4293996153	 0.284754
H	 0.2020873772	-1.5871223918	 1.4696724086	 0.104931
H	 1.9487005266	-0.5250012468	 2.5753041235	 0.298753
136.1397	171.132	209.5934	267.2264	274.968	287.4149	347.9015	386.8383	484.3388	498.7594	516.0562	655.9497	712.1486	849.1512	882.3456	971.644	1009.551	1056.2247	1082.6215	1145.1162	1157.3675	1204.089	1248.9858	1294.6231	1316.2187	1352.132	1399.3439	1415.3645	1468.3633	1479.9951	1511.6863	3034.7459	3099.2197	3136.3348	3144.9933	3149.3691	3733.3049	3785.765	3804.9681
CC1(O)C(O)C1O	C[C@@]1(O)[C@@H](O)[C@H]1O	
InChI=1S/C4H8O3/c1-4(7)2(5)3(4)6/h2-3,5-7H,1H3	InChI=1S/C4H8O3/c1-4(7)2(5)3(4)6/h2-3,5-7H,1H3/t2-,3+,4+
