17
gdb 4024	3.04281	1.4126	1.09958	2.1285	69.05	-0.2434	-0.0371	0.2064	1093.2304	0.138306	-400.974371	-400.964779	-400.963835	-401.009486	33.093	
C	 0.0588369401	 1.5022715007	 0.2553890685	-0.407794
C	 0.1760184537	-0.0130594907	 0.0694595819	-0.128288
C	-1.2115451957	-0.6518556042	 0.0002497434	 0.158534
O	-1.5217012308	-1.6848325314	 0.5330773441	-0.246046
C	 0.9072819416	-0.4393098868	-1.1941285559	 0.334995
C	 1.3833743692	-1.8630277124	-1.2878543214	-0.483887
N	 1.0491670129	 0.4474774357	-2.1037507834	-0.16468
O	 1.7325769817	-0.0455517669	-3.2220867074	-0.39399
H	 1.0481372493	 1.9651787721	 0.2530096684	 0.132588
H	-0.5149848398	 1.9552831822	-0.5566769865	 0.137942
H	-0.4341290083	 1.7327960667	 1.2046912438	 0.117432
H	 0.6858104075	-0.4754225264	 0.9225585089	 0.104627
H	-1.9325444044	-0.0824152453	-0.630266844	 0.086989
H	 1.3286543064	-2.2235163353	-2.3164577037	 0.152788
H	 2.4313346544	-1.9315803361	-0.971800239	 0.143524
H	 0.79162444	-2.509527682	-0.6358293064	 0.147434
H	 1.7398605822	 0.7187476102	-3.8081114712	 0.307831
40.0914	69.8263	103.9831	190.7549	206.2835	222.1558	290.357	330.266	357.0627	412.1403	431.8253	501.8562	562.9558	651.0192	797.1147	892.8698	962.4023	976.6452	1014.1463	1042.3226	1092.2153	1117.6899	1141.8955	1221.1217	1268.5599	1348.6831	1393.6835	1404.0168	1405.3238	1419.8429	1482.0323	1487.185	1489.3934	1494.6966	1721.6109	1826.3983	2871.9605	3039.8201	3048.3155	3050.4203	3107.6912	3121.7668	3132.3297	3147.757	3818.8604
CC(C=O)C(C)=NO	C[C@@H](C=O)C(=NO)C	
InChI=1S/C5H9NO2/c1-4(3-7)5(2)6-8/h3-4,8H,1-2H3	InChI=1S/C5H9NO2/c1-4(3-7)5(2)6-8/h3-4,8H,1-2H3/t4-/m0/s1
