9
gdb 441	8.78743	3.90713	2.7507	1.6338	39.3	-0.2793	-0.0315	0.2478	433.0637	0.062716	-321.271406	-321.26687	-321.265926	-321.299312	15.897	
O	 0.0233899215	 0.0058581586	 0.002894347	-0.298738
C	-0.0486669825	 1.1915981377	 0.010281836	 0.418241
C	-1.232939908	 2.1516462483	 0.0318880661	-0.30641
N	-0.6502438294	 3.491958294	 0.0310218689	-0.24097
C	 0.6019161271	 3.3037923	 0.0126455938	 0.131771
O	 1.0822153914	 2.0172311285	-0.0009512495	-0.198963
H	-1.8739911739	 1.9938661163	-0.8416179595	 0.16698
H	-1.8495241951	 1.9843698715	 0.9211000676	 0.166981
H	 1.3677559789	 4.069760905	 0.0061482296	 0.161108
186.0251	472.4907	481.3515	581.5055	688.8012	824.1926	866.1151	943.1085	999.0471	1011.4582	1050.6528	1148.7203	1189.9034	1289.0359	1341.366	1440.1424	1698.3651	1928.3589	3060.8133	3096.9427	3230.9437
O=C1CN=CO1	O=C1CN=CO1	
InChI=1S/C3H3NO2/c5-3-1-4-2-6-3/h2H,1H2	InChI=1S/C3H3NO2/c5-3-1-4-2-6-3/h2H,1H2
