19
gdb 4012	2.71087	1.42359	1.18505	0.7511	70.69	-0.2502	0.0026	0.2528	1111.3942	0.163061	-402.149144	-402.139363	-402.138419	-402.184274	34.114	
C	 1.8245906126	-0.3086083975	 0.5903861355	-0.37952
C	 0.418638073	-0.217244797	-0.0311439617	-0.258338
C	 0.431580902	-0.3223391615	-1.5359483292	 0.337881
C	 0.06433096	-1.6358162687	-2.1874147782	-0.151998
O	 0.9172111021	-2.6963891113	-1.7867034929	-0.231348
C	 2.1719418045	-2.6791780604	-2.4382995892	-0.235382
N	 0.7365177946	 0.6239031906	-2.3412208349	-0.165599
O	 1.0522614307	 1.8130528408	-1.6642710965	-0.395323
H	 2.2826840333	-1.2762885433	 0.3700069552	 0.130246
H	 2.4692312675	 0.4825906578	 0.200538708	 0.135012
H	 1.7672849406	-0.1999042866	 1.677703759	 0.113274
H	-0.2108430532	-1.0163119942	 0.3725244645	 0.104413
H	-0.0342562865	 0.7407117009	 0.2435473391	 0.124883
H	-0.9411187904	-1.9330961436	-1.8660794618	 0.110724
H	 0.0617391981	-1.5120880838	-3.2789244176	 0.104295
H	 2.0584022556	-2.7849744371	-3.5279235465	 0.107977
H	 2.7324453506	-1.7552615341	-2.2401374046	 0.116141
H	 2.7409299962	-3.529987649	-2.0558352045	 0.12597
H	 1.2243671984	 2.4200945481	-2.3917647237	 0.306692
49.1439	78.2819	105.3824	148.5069	208.0973	223.7187	281.3956	311.9709	318.9626	407.2021	428.3747	473.421	602.7772	669.0333	792.8351	803.6573	933.0955	959.476	992.7206	1033.5818	1082.7954	1107.1111	1122.5625	1183.3774	1214.9552	1248.7358	1295.5001	1307.6974	1351.987	1384.2656	1399.0711	1413.6438	1472.0491	1479.867	1485.3661	1485.5934	1499.468	1506.9141	1513.7798	1724.6215	2985.2581	3010.3546	3040.173	3046.6897	3047.2371	3064.8592	3091.8306	3116.1335	3116.8985	3135.1249	3820.0428
CCC(COC)=NO	CCC(=NO)COC	
InChI=1S/C5H11NO2/c1-3-5(6-7)4-8-2/h7H,3-4H2,1-2H3	InChI=1S/C5H11NO2/c1-3-5(6-7)4-8-2/h7H,3-4H2,1-2H3
