17
gdb 1272	7.85219	1.03564	0.93603	3.8961	61.44	-0.2439	-0.0087	0.2352	1207.6711	0.145338	-346.873992	-346.864937	-346.863992	-346.908901	30.163	
C	-0.0652735623	 1.5056142222	 0.0105182692	-0.472682
C	 0.0765753398	-0.0078100728	 0.002158651	 0.377809
O	 1.1586425314	-0.5469088346	-0.0116910532	-0.285479
C	-1.2243305816	-0.8037912753	 0.0100131008	-0.305139
C	-1.0193889055	-2.3166932831	-0.0004783925	-0.156966
C	-2.3356070312	-3.0817430421	 0.0078670884	-0.07786
O	-2.03308661	-4.4672735067	-0.0029069712	-0.418899
H	 0.9214410275	 1.9698696228	 0.0038479106	 0.143066
H	-0.6364106368	 1.8408020441	-0.86260516	 0.136614
H	-0.6207894291	 1.8326289747	 0.8967040231	 0.136525
H	-1.8054758431	-0.4870392434	 0.8886394307	 0.117225
H	-1.822141912	-0.4771991085	-0.8537079256	 0.117253
H	-0.4402948466	-2.6080398766	-0.8822521931	 0.121201
H	-0.4234698276	-2.6178781705	 0.8666541041	 0.121198
H	-2.9217288099	-2.8077359526	 0.9017180054	 0.080412
H	-2.9388161065	-2.7976856497	-0.8713624965	 0.080406
H	-2.8602820266	-4.9574298079	 0.0026526187	 0.285317
32.4441	78.179	97.3517	125.9405	138.9077	267.2596	303.4812	318.8658	477.5415	482.6517	594.5943	736.7788	825.4395	830.9117	934.8728	972.4393	1032.9882	1062.4465	1091.0917	1137.5082	1172.4934	1210.07	1243.4693	1298.0612	1310.367	1311.1651	1380.038	1391.0472	1452.1669	1464.8885	1467.0837	1477.4209	1493.5716	1528.0018	1814.7931	2949.0949	2972.2281	3005.4756	3031.1674	3036.8257	3061.5959	3096.5694	3103.935	3152.5803	3830.1557
CC(=O)CCCO	CC(=O)CCCO	
InChI=1S/C5H10O2/c1-5(7)3-2-4-6/h6H,2-4H2,1H3	InChI=1S/C5H10O2/c1-5(7)3-2-4-6/h6H,2-4H2,1H3
