10
gdb 3944	3.80283	3.70434	1.87647	1.4129	44.41	-0.2188	0.0032	0.2219	598.3531	0.068039	-392.627857	-392.621697	-392.620753	-392.657653	21.908	
O	 0.0991640438	 1.382828209	-0.0032110371	-0.423081
C	 0.0744009322	 0.0378116262	 0.0220698847	 0.310255
N	 0.0285115708	-0.7311561329	-1.0560772459	-0.292771
N	 0.0199602019	-1.9661710659	-0.5511304321	-0.10108
N	 0.0571695553	-2.0545986064	 0.7796973244	-0.292772
C	 0.0926835716	-0.7880979766	 1.1676843995	 0.310255
O	 0.1383705365	-0.3865100399	 2.4510245959	-0.423082
H	 0.0761077839	 1.657310476	-0.9280283054	 0.30962
H	-0.0133602861	-2.780551089	-1.1377115951	 0.293037
H	 0.13872023	-1.1773630805	 3.003935541	 0.30962
168.6598	277.3692	281.3026	324.7016	335.4669	428.5437	514.3064	667.2736	681.7635	741.8107	800.3169	966.7829	1141.691	1172.8467	1209.0882	1273.3975	1371.831	1446.3373	1483.2876	1609.8696	1655.4801	3703.0197	3804.7367	3806.004
OC1=NNN=C1O	Oc1n[nH]nc1O	
InChI=1S/C2H3N3O2/c6-1-2(7)4-5-3-1/h(H3,3,4,5,6,7)	InChI=1S/C2H3N3O2/c6-1-2(7)4-5-3-1/h(H3,3,4,5,6,7)
