17
gdb 2945	6.06879	1.80561	1.52	1.3458	60.01	-0.2521	0.088	0.34	835.8032	0.14901	-346.857871	-346.850571	-346.849627	-346.889986	25.768	
C	 0.0235878483	 1.5235276219	 0.1129824545	-0.381739
C	-0.0434052864	-0.0050340465	 0.0808617625	-0.187368
C	-1.4652121703	-0.5365847671	-0.0717920334	 0.130497
C	-1.5742767225	-2.0765698173	-0.0821275541	-0.130563
O	-2.7510380523	-2.3405782684	 0.6655398622	-0.233336
C	-2.7694960664	-1.3360242883	 1.6458123071	 0.026442
O	-2.2883073435	-0.1544288293	 1.040799527	-0.269593
H	 1.0519970015	 1.8716056849	 0.2472228205	 0.111195
H	-0.3570121709	 1.9556943719	-0.8191489204	 0.113829
H	-0.5820488612	 1.9146762138	 0.9348147939	 0.136333
H	 0.5594961931	-0.3924747714	-0.751805756	 0.09612
H	 0.3867772236	-0.4205307858	 1.0008651096	 0.09896
H	-1.921964314	-0.1127514596	-0.9771140428	 0.080164
H	-1.6954310481	-2.501270095	-1.0805660634	 0.119019
H	-0.6929315679	-2.533085406	 0.396824451	 0.092874
H	-3.8000129763	-1.1860215812	 1.9825650112	 0.117133
H	-2.1286850268	-1.6145355566	 2.5033442607	 0.080031
43.0529	109.227	197.1496	235.3581	274.8724	395.8144	442.6211	655.5776	740.7592	777.2717	853.3002	951.9208	967.7109	975.5059	1014.5726	1040.9151	1105.7176	1110.338	1128.6237	1167.4583	1187.8777	1212.0363	1264.987	1297.3692	1309.8894	1359.1723	1369.8173	1405.9904	1409.104	1436.386	1474.2489	1497.245	1508.7422	1511.5965	1546.9146	2925.3657	2976.6275	3003.6245	3016.4537	3037.2114	3056.6527	3077.1353	3103.1503	3110.0429	3122.4588
CCC1COCO1	CC[C@H]1COCO1	
InChI=1S/C5H10O2/c1-2-5-3-6-4-7-5/h5H,2-4H2,1H3	InChI=1S/C5H10O2/c1-2-5-3-6-4-7-5/h5H,2-4H2,1H3/t5-/m0/s1
