19
gdb 1174	3.78827	1.79974	1.69061	0.6494	72.99	-0.2571	0.0621	0.3192	877.146	0.168729	-273.761967	-273.753003	-273.752059	-273.794445	33.384	
C	-0.091131352	 1.5505367836	 0.1403961975	-0.406941
C	 0.0126291466	 0.0300047775	-0.0167740826	-0.172317
C	 0.7404675367	-0.479278527	-1.296984201	 0.071238
C	 0.0068319701	-0.0173745873	-2.5776463525	-0.402909
C	 2.2086816847	 0.0050695696	-1.3346867334	-0.402916
C	 0.7319445853	-1.9469145931	-1.2554617368	 0.349674
C	 0.7215117259	-3.1488639325	-1.2157156025	-0.501239
H	 0.8918105972	 2.0283210771	 0.1915329693	 0.119458
H	-0.6477881225	 2.013430895	-0.6799337815	 0.119446
H	-0.6187188019	 1.7928582379	 1.0682776299	 0.116142
H	 0.5320921607	-0.3900042252	 0.852170764	 0.103777
H	-0.9933174367	-0.4051022335	-0.0090778001	 0.103771
H	 0.0379897418	 1.0720141672	-2.6720746203	 0.113819
H	 0.4787784801	-0.4474811816	-3.4652973127	 0.122083
H	-1.0400674483	-0.3344673823	-2.5645495182	 0.120143
H	 2.743114309	-0.2957377544	-0.428803656	 0.120137
H	 2.7315731655	-0.4246043542	-2.1935309541	 0.122081
H	 2.2564934511	 1.0946177215	-1.4197994788	 0.113822
H	 0.7136062168	-4.2100317483	-1.18354941	 0.190733
88.3975	152.5138	178.0949	212.021	269.7456	278.6541	290.0795	357.0029	360.2885	437.6034	538.5463	553.4595	624.2969	625.6701	690.5517	783.9216	864.5512	936.2485	941.7967	1002.3479	1024.8358	1061.6888	1080.4278	1209.3062	1221.4936	1240.1944	1323.8941	1368.5224	1394.3909	1408.5518	1421.2006	1481.0912	1481.8265	1486.9309	1502.6972	1507.8332	1508.8891	1512.141	2229.3266	3033.7414	3038.2628	3040.4343	3045.0979	3068.8249	3104.1139	3109.9778	3114.9381	3116.7969	3118.1382	3118.4496	3503.8775
CCC(C)(C)C#C	CCC(C)(C)C#C	
InChI=1S/C7H12/c1-5-7(3,4)6-2/h1H,6H2,2-4H3	InChI=1S/C7H12/c1-5-7(3,4)6-2/h1H,6H2,2-4H3
