18
gdb 414	5.14779	2.74148	2.30804	0.1151	63.52	-0.2627	0.0859	0.3486	658.7763	0.165551	-235.696677	-235.689426	-235.688482	-235.727158	27.138	
C	 0.1475096657	 1.4681471008	 0.2387041428	-0.378679
C	-0.1536510304	 0.017632591	-0.1589053075	-0.240965
C	 0.6703709514	-0.4953010017	-1.3324279562	 0.40417
C	 0.4356501987	 0.2066282762	-2.6576059187	-0.460057
C	 2.0663309985	-0.9941805459	-1.0384812171	-0.294048
C	 0.9665012781	-1.9752648787	-1.3761772936	-0.311652
H	 1.2084982049	 1.5976958342	 0.4776168564	 0.116027
H	-0.0999407453	 2.1693847665	-0.5643618298	 0.116371
H	-0.4333933179	 1.7604552756	 1.1191211147	 0.109392
H	 0.0232933019	-0.6334848544	 0.70605741	 0.089699
H	-1.2213076941	-0.0804590054	-0.3996835999	 0.091531
H	 0.7026704665	 1.2679838122	-2.6095084592	 0.115985
H	 1.0348498399	-0.245614315	-3.4541328866	 0.11018
H	-0.617661808	 0.1420551513	-2.9567930347	 0.111337
H	 2.8425611686	-0.8219639689	-1.7769089316	 0.105152
H	 2.4187969737	-0.9595969898	-0.0124598372	 0.105509
H	 0.5799600209	-2.6011505889	-0.5782180609	 0.105131
H	 0.9986446769	-2.4636433592	-2.3447578008	 0.104917
94.8184	207.5794	225.7294	254.5089	339.3951	350.2768	363.5625	478.016	681.1059	777.8421	794.378	866.3473	894.6974	920.926	951.5279	1013.1591	1021.5918	1048.9732	1076.9744	1083.5321	1107.0653	1143.0327	1187.5287	1274.0336	1315.1952	1357.1582	1383.6738	1408.7308	1419.3686	1467.4748	1479.1835	1491.8811	1497.827	1503.331	1510.9859	1512.1594	3009.5653	3022.4941	3035.1455	3046.8631	3082.6468	3096.6463	3102.1707	3106.7882	3122.2929	3127.1789	3199.1892	3213.7672
CCC1(C)CC1	CCC1(C)CC1	
InChI=1S/C6H12/c1-3-6(2)4-5-6/h3-5H2,1-2H3	InChI=1S/C6H12/c1-3-6(2)4-5-6/h3-5H2,1-2H3
