17
gdb 4912	6.47743	1.22691	1.05163	0.9482	70.83	-0.2269	0.015	0.2419	1138.0814	0.14212	-363.915417	-363.907234	-363.906289	-363.948596	29.073	
C	-0.9274857066	 0.8178878534	-0.1074480651	-0.387316
C	 0.5375662588	 0.3749330008	-0.0931211364	-0.284979
C	 1.0070772078	-0.1302217202	 1.2333093756	 0.252462
C	 0.346992192	-0.2551874513	 2.4095324355	-0.124668
O	 1.2142868261	-0.7706226575	 3.3390129301	-0.176943
C	 2.3793372252	-0.9345228183	 2.6628499038	 0.377518
C	 3.5392968035	-1.4876224942	 3.4093983449	-0.48799
N	 2.317865709	-0.5748216309	 1.4201216178	-0.348974
H	-1.1037082627	 1.6301108861	 0.6056052028	 0.120163
H	-1.2146192055	 1.176498629	-1.099593151	 0.116887
H	-1.5950379338	-0.0095231238	 0.1551719588	 0.120168
H	 0.700895342	-0.4096383298	-0.8430508424	 0.119712
H	 1.185191024	 1.2065988301	-0.3989744087	 0.119708
H	-0.6520585466	-0.0491304611	 2.7507236862	 0.139312
H	 3.3141093375	-2.4825450579	 3.8073749482	 0.144565
H	 4.3926855638	-1.558336432	 2.734850163	 0.155813
H	 3.8048147855	-0.8469785924	 4.2567604567	 0.144564
53.246	89.0882	173.6898	179.1767	247.9428	317.2887	329.2424	448.0465	630.2163	640.7878	695.3223	726.5156	748.7651	800.4106	941.4252	964.4371	1021.2603	1046.728	1066.2457	1083.3158	1113.3607	1133.4681	1222.8281	1245.9341	1280.4977	1340.763	1389.3921	1410.725	1414.0461	1475.4873	1480.3014	1481.1915	1498.6281	1509.3833	1623.3117	1637.787	3024.7127	3036.7398	3044.0979	3047.7092	3097.9294	3102.2307	3113.497	3157.8841	3298.3994
CCC1=COC(C)=N1	CCc1coc(C)n1	
InChI=1S/C6H9NO/c1-3-6-4-8-5(2)7-6/h4H,3H2,1-2H3	InChI=1S/C6H9NO/c1-3-6-4-8-5(2)7-6/h4H,3H2,1-2H3
