15
gdb 3035	10.59289	1.0954	1.06573	2.9672	61.77	-0.2587	0.0331	0.2918	1059.6836	0.125976	-304.687053	-304.679807	-304.678863	-304.718938	25.36	
N	-0.0414870044	-1.1325850911	-0.0377309748	-0.301845
C	-0.0080240768	 0.0213283087	-0.0895106721	 0.255662
C	 0.0636652835	 1.4791237092	-0.1479857569	-0.331674
C	 1.4468917178	 2.0212370202	 0.2777175354	-0.219038
C	 1.5007842262	 3.5293891213	 0.2050242297	 0.029877
C	 2.7723627109	 4.2288738075	-0.095107131	-0.249035
N	 1.6809357252	 4.2133243044	-1.0876809948	-0.314424
H	-0.1726802545	 1.8019824573	-1.1681508851	 0.158654
H	-0.717909734	 1.8941305014	 0.4988030541	 0.156576
H	 1.662605114	 1.6860201194	 1.2986146107	 0.129985
H	 2.2208301291	 1.5880436829	-0.3666527766	 0.11651
H	 0.7852099393	 4.0366455355	 0.8513502473	 0.097631
H	 2.9788207342	 5.2001569296	 0.3444995336	 0.126256
H	 3.6537749477	 3.6201344791	-0.2810571129	 0.116231
H	 1.8944897918	 3.5307598446	-1.8125742068	 0.228635
70.5468	112.1569	131.7821	241.5729	367.9089	400.7239	446.1188	541.235	759.885	802.3577	840.7014	925.0216	946.7209	956.549	1020.3842	1027.0409	1063.0976	1127.8022	1150.8494	1174.0247	1249.1432	1254.9062	1289.9287	1294.4922	1326.7936	1368.4394	1432.3247	1466.6601	1486.2305	1512.7818	2363.1865	3034.8074	3047.3993	3069.6955	3090.635	3109.4884	3115.672	3195.8787	3482.2211
N#CCCC1CN1	N#CCC[C@H]1CN1	
InChI=1S/C5H8N2/c6-3-1-2-5-4-7-5/h5,7H,1-2,4H2	InChI=1S/C5H8N2/c6-3-1-2-5-4-7-5/h5,7H,1-2,4H2/t5-/m0/s1
