9
gdb 830	5.33241	2.85142	2.80545	3.0238	29.26	-0.2955	0.0532	0.3488	487.4189	0.057079	-452.728039	-452.721943	-452.720999	-452.758105	20.137	
O	-0.0523958903	 1.4359607502	 0.0098997281	-0.406349
C	 0.0246774032	 0.0316906607	 0.0017121552	-0.195797
C	-1.396609463	-0.5076351393	 0.0126264994	 0.286611
F	-2.0879566466	-0.1077168293	-1.0585752607	-0.071552
F	-1.3616561171	-1.8506658271	 0.0047757663	-0.082304
F	-2.0667940107	-0.1198175441	 1.1015805053	-0.071556
H	 0.8416028528	 1.7891826291	 0.0054894663	 0.302472
H	 0.5156173417	-0.3672605907	-0.8972600562	 0.119228
H	 0.5328405301	-0.3767439394	 0.8867281364	 0.119247
101.3802	161.4008	225.8276	352.4525	417.3617	535.6128	550.6406	648.9963	835.2683	990.7038	1117.835	1167.8579	1193.6783	1254.8869	1301.3195	1314.5316	1490.2019	1506.7652	3001.2103	3042.9738	3843.834
OCC(F)(F)F	OCC(F)(F)F	
InChI=1S/C2H3F3O/c3-2(4,5)1-6/h6H,1H2	InChI=1S/C2H3F3O/c3-2(4,5)1-6/h6H,1H2
