16
gdb 4768	4.60365	1.40941	1.09975	1.714	66.83	-0.2314	0.0111	0.2424	1066.6708	0.131598	-379.957032	-379.948955	-379.94801	-379.990221	28.505	
C	-0.3646269113	 1.3820729134	 0.0159310651	-0.490837
C	-0.0628532575	-0.0759441251	-0.0596137025	 0.252018
C	 0.6462509932	-0.7698577874	-0.9797850038	-0.123569
O	 0.6455764887	-2.0940240744	-0.619353345	-0.176814
C	-0.0791445215	-2.1313788757	 0.5255146959	 0.375827
C	-0.2737503463	-3.4643772941	 1.1927738535	-0.277775
N	-1.0627117471	-3.4283388156	 2.4161175612	-0.486617
N	-0.5228895235	-0.9760078767	 0.905870749	-0.357544
H	 0.0282583652	 1.815288363	 0.9419233687	 0.138034
H	 0.0751013912	 1.9192811613	-0.8283131279	 0.123891
H	-1.4455287322	 1.5581960473	 0.0110058701	 0.138098
H	 1.1777292103	-0.5160045069	-1.8807168928	 0.140485
H	-0.7458347121	-4.151174212	 0.4788590423	 0.134549
H	 0.710768412	-3.8972903712	 1.4108403397	 0.134549
H	-0.6273879076	-2.7791566949	 3.0662578508	 0.237868
H	-1.9672390516	-3.0129055111	 2.2090649156	 0.237838
43.4164	133.4774	164.5848	167.5488	246.495	325.9677	336.1886	453.0009	626.5828	641.0082	690.8596	746.1437	750.9756	912.3909	936.4655	974.9937	1010.7147	1028.6094	1067.9856	1117.7722	1144.4343	1186.4261	1202.7924	1271.9156	1325.4195	1390.6106	1397.3549	1419.1405	1473.5639	1475.4003	1490.9313	1611.8384	1644.582	1678.7832	3027.9358	3037.2034	3057.3485	3092.5984	3121.0185	3290.9484	3491.6775	3557.903
CC1=COC(CN)=N1	Cc1coc(CN)n1	
InChI=1S/C5H8N2O/c1-4-3-8-5(2-6)7-4/h3H,2,6H2,1H3	InChI=1S/C5H8N2O/c1-4-3-8-5(2-6)7-4/h3H,2,6H2,1H3
