15
gdb 2718	10.97899	0.8812	0.85421	5.1011	55.52	-0.2783	0.0081	0.2864	1267.3873	0.123202	-382.803358	-382.795011	-382.794067	-382.837443	27.209	
O	-0.2946829843	 1.3235789173	 0.3634185778	-0.415563
C	-0.0347427985	-0.0264989238	 0.0217531522	-0.074062
C	-1.3798179581	-0.734768052	-0.0947856393	-0.175608
C	-1.2297602756	-2.2086430916	-0.449868132	-0.090612
O	-2.5149349976	-2.8100480353	-0.6533890272	-0.173142
C	-2.9890835156	-3.6288885237	 0.3030719992	 0.172369
O	-4.0616947389	-4.1485267366	 0.2385401818	-0.272873
H	 0.5457259075	 1.7858002652	 0.4325145394	 0.289762
H	 0.5102389736	-0.1014459186	-0.9338171807	 0.090869
H	 0.5855628668	-0.5212530925	 0.7879134699	 0.087909
H	-1.9185424091	-0.6350346011	 0.8542172021	 0.118635
H	-1.9835418516	-0.2369298878	-0.860329903	 0.130737
H	-0.6819537531	-2.3373560352	-1.3886462871	 0.126697
H	-0.6842726454	-2.7523349749	 0.3334599081	 0.110588
H	-2.2750236201	-3.7686870396	 1.1396410288	 0.074294
37.4163	81.1268	106.7189	141.6063	213.106	265.1745	345.0672	381.3224	467.3584	676.4092	769.6528	879.0326	1015.8712	1035.3112	1046.2428	1059.2257	1095.549	1136.8438	1196.337	1241.9693	1260.2947	1309.1886	1320.0875	1333.1453	1411.1618	1435.5272	1468.426	1495.137	1509.8541	1530.4985	1868.6226	2934.1905	2955.3952	2980.5044	3016.0895	3048.9197	3076.8909	3103.1698	3831.0783
OCCCOC=O	OCCCOC=O	
InChI=1S/C4H8O3/c5-2-1-3-7-4-6/h4-5H,1-3H2	InChI=1S/C4H8O3/c5-2-1-3-7-4-6/h4-5H,1-3H2
