12
gdb 49	8.63483	4.11977	2.88825	0.6875	45.37	-0.2392	0.0192	0.2584	452.5112	0.100501	-248.375248	-248.368823	-248.367879	-248.405354	21.616	
C	-0.1025537032	 1.4990712737	-0.0013364225	-0.465668
C	-0.0051977391	-0.0034311418	-0.0272346955	 0.372315
C	-0.0068853597	-0.7689073987	 1.2643474432	-0.456563
N	 0.0818679901	-0.6920279094	-1.1008730597	-0.157798
O	 0.0743906678	 0.132153945	-2.2419525781	-0.402674
H	 0.7834209303	 1.9469086155	-0.4635404957	 0.147442
H	-0.9615043039	 1.8361408199	-0.5902196486	 0.1481
H	-0.1985417291	 1.8746298935	 1.0193160678	 0.116076
H	-0.9262001248	-0.5729794561	 1.829824795	 0.128342
H	 0.0725615375	-1.8406478231	 1.0751686279	 0.137501
H	 0.8293717753	-0.4555334013	 1.9013308899	 0.128327
H	 0.1397592387	-0.5125429873	-2.9538926036	 0.3046
31.371	208.0672	294.1009	301.6437	365.5013	398.0182	528.7691	604.5085	810.9485	966.4837	970.6577	983.9932	1084.2024	1102.0199	1269.5816	1385.9196	1400.7622	1413.466	1475.8205	1479.8486	1480.0153	1485.1314	1735.5552	3023.762	3043.2913	3073.0071	3100.8425	3133.0929	3140.2718	3824.2759
CC(C)=NO	CC(=NO)C	
InChI=1S/C3H7NO/c1-3(2)4-5/h5H,1-2H3	InChI=1S/C3H7NO/c1-3(2)4-5/h5H,1-2H3
