13
gdb 934	5.91694	2.64168	1.84728	2.678	60.88	-0.2478	-0.0379	0.2099	662.268	0.104175	-303.556846	-303.550797	-303.549852	-303.588065	21.246	
C	-0.0100314982	 1.5235396764	 0.0103492761	-0.500234
C	-0.0043655302	 0.0190011844	 0.0021695362	 0.234779
C	-0.003293012	-0.7263025709	-1.1773134749	-0.037598
N	 0.0243327566	-2.059623992	-1.201892191	-0.245103
C	 0.0484416428	-2.6623960531	-0.0126950672	 0.074306
N	 0.0385637587	-2.0725805668	 1.1831508513	-0.245114
C	 0.0107320265	-0.7390486465	 1.1733689859	-0.037659
H	 1.0102877596	 1.9248898358	 0.0028347558	 0.144469
H	-0.5238599406	 1.9236674757	-0.8684197536	 0.135739
H	-0.5071117806	 1.914017141	 0.9029657295	 0.135666
H	-0.0301245034	-0.2245980688	-2.1440032043	 0.110906
H	 0.0742186975	-3.7493920024	-0.0187592753	 0.118941
H	-0.0045273366	-0.2478522128	 2.1456884416	 0.110902
18.0511	205.7911	324.1836	416.3747	439.1342	564.6934	643.7824	756.0113	827.3438	913.6056	1003.8236	1005.9734	1008.6035	1060.8404	1073.9406	1142.4425	1217.8064	1246.9864	1263.6331	1376.906	1416.2843	1452.5158	1454.8859	1485.5698	1498.12	1598.4054	1628.252	3033.486	3092.5311	3117.3475	3135.3397	3137.6855	3167.2103
CC1=CN=CN=C1	Cc1cncnc1	
InChI=1S/C5H6N2/c1-5-2-6-4-7-3-5/h2-4H,1H3	InChI=1S/C5H6N2/c1-5-2-6-4-7-3-5/h2-4H,1H3
