14
gdb 2130	3.89038	3.11025	1.76615	3.7808	60.24	-0.2407	-0.0171	0.2235	694.9269	0.114234	-324.635136	-324.628295	-324.627351	-324.666086	24.361	
C	 0.0060254168	 1.5058349659	-0.0068792095	-0.486911
C	-0.0389480397	 0.0159408046	-0.0113653408	 0.224578
C	-1.0666696483	-0.8257933757	-0.1544067159	-0.192056
C	-0.6022174266	-2.2581683923	-0.0875785768	-0.204692
N	 0.819230732	-2.1038446064	 0.1114021619	-0.330023
C	 1.2172711757	-0.7878577207	 0.1657327654	 0.354458
O	 2.3482392554	-0.3746556765	 0.3238755651	-0.384672
H	 0.6687346167	 1.8717203684	-0.7986270354	 0.145123
H	-0.9856504613	 1.9428275667	-0.1466538138	 0.11887
H	 0.4252208761	 1.8738864505	 0.9358512278	 0.145119
H	-2.107696934	-0.56639683	-0.3006473594	 0.109178
H	-1.0826815857	-2.8026304111	 0.7389142362	 0.123758
H	-0.8371937004	-2.8047897635	-1.0129775418	 0.123761
H	 1.4716424134	-2.8630031298	 0.2040761069	 0.25351
86.2613	122.535	239.0213	252.414	411.0113	417.6439	509.2893	607.5603	754.4414	758.3996	799.9816	839.904	946.8007	1010.1597	1013.5494	1067.8901	1082.5269	1164.1222	1184.9722	1231.5447	1312.0533	1359.1914	1414.3425	1425.4106	1471.8247	1483.69	1501.4586	1712.3991	1816.6855	2992.9569	3012.8088	3037.3079	3091.213	3123.2092	3212.7736	3675.6077
CC1=CCNC1=O	CC1=CCNC1=O	
InChI=1S/C5H7NO/c1-4-2-3-6-5(4)7/h2H,3H2,1H3,(H,6,7)	InChI=1S/C5H7NO/c1-4-2-3-6-5(4)7/h2H,3H2,1H3,(H,6,7)
