13
gdb 2641	19.97251	0.87279	0.84511	0.4809	52.1	-0.2633	-0.0414	0.2219	1227.0498	0.097123	-381.584942	-381.576709	-381.575764	-381.619217	25.501	
O	-0.1207440616	 0.0778520791	 0.4693782341	-0.231676
C	 0.0998083819	 1.0188074203	-0.2436077338	 0.140101
C	 1.3407848803	 1.8881251197	-0.1223982939	-0.14367
O	 1.2739928567	 2.8884840724	-1.1081841874	-0.248741
C	 2.371317357	 3.7675833167	-1.1041910237	-0.14367
C	 2.1663626788	 4.7874689765	-2.2124558716	 0.1401
O	 2.9451944915	 5.6698914626	-2.4514931438	-0.231676
H	-0.5891263468	 1.3352948389	-1.0572726143	 0.100722
H	 1.3794965129	 2.3135208275	 0.89432286	 0.129442
H	 2.2339310707	 1.2521379575	-0.2405855706	 0.129452
H	 2.4688787015	 4.3004420207	-0.1436090388	 0.129446
H	 3.3233739934	 3.2390007057	-1.2784172023	 0.129448
H	 1.2241442037	 4.6412764524	-2.7849046141	 0.100722
46.1662	61.722	90.1065	112.0597	113.0273	307.1052	350.9812	518.5622	593.5914	730.5267	752.5124	1018.7117	1020.2	1102.5761	1104.7396	1122.6621	1187.1407	1232.613	1245.3706	1328.5495	1370.3053	1401.9102	1420.0772	1465.7792	1498.2255	1847.0885	1849.657	2901.7693	2903.8986	2964.5726	2971.8121	2995.5364	3002.5524
O=CCOCC=O	O=CCOCC=O	
InChI=1S/C4H6O3/c5-1-3-7-4-2-6/h1-2H,3-4H2	InChI=1S/C4H6O3/c5-1-3-7-4-2-6/h1-2H,3-4H2
