17
gdb 4039	3.44782	1.44173	1.29145	1.4383	67.48	-0.2516	0.0029	0.2545	1013.9501	0.138727	-400.942217	-400.933098	-400.932154	-400.97635	32.456	
C	-0.485849666	 1.358031524	 0.010740901	-0.48641
C	-0.033212262	-0.0754722004	 0.0610091279	 0.303424
N	 0.2871751787	-0.712860359	 1.1208341017	-0.174378
O	 0.1892187207	 0.0897660317	 2.2662747881	-0.392384
C	 0.0595687963	-0.8417549465	-1.2277129104	 0.340788
C	 1.1117039525	-0.3641423332	-2.2055076342	-0.47138
C	-0.4485638967	-2.2154623441	-1.2823534805	-0.212168
O	-1.2249710487	-1.131420839	-1.810289686	-0.276846
H	 0.3718442046	 2.0408088394	 0.0257582323	 0.141966
H	-1.0614941453	 1.544731361	-0.8982791826	 0.139835
H	-1.0968678371	 1.5907189713	 0.8849471149	 0.1537
H	 0.4173355321	-0.5299626822	 2.9672346379	 0.307444
H	 2.1135610053	-0.4832941424	-1.7805129245	 0.132094
H	 1.0493845	-0.9360174503	-3.134565206	 0.131074
H	 0.9700591881	 0.6943519948	-2.4472846584	 0.128137
H	-0.0479804308	-2.9030342108	-2.0262207045	 0.109121
H	-0.8375899517	-2.6752941843	-0.3778184869	 0.125983
48.4503	75.1178	158.8568	188.1537	208.4168	289.3553	344.9731	355.6291	371.2005	444.4597	517.1948	537.5422	589.6775	737.2196	815.8549	883.5029	924.6417	965.3452	1010.7369	1028.5932	1055.3786	1106.4122	1134.6261	1158.802	1170.9462	1300.0598	1385.0883	1397.5615	1408.7589	1419.6429	1475.5696	1480.3861	1485.5555	1499.7412	1530.0348	1726.504	3038.222	3041.3501	3092.9159	3104.7157	3108.5975	3125.5799	3144.915	3188.0676	3819.9703
CC(=NO)C1(C)CO1	CC(=NO)[C@@]1(C)CO1	
InChI=1S/C5H9NO2/c1-4(6-7)5(2)3-8-5/h7H,3H2,1-2H3	InChI=1S/C5H9NO2/c1-4(6-7)5(2)3-8-5/h7H,3H2,1-2H3/t5-/m1/s1
