17
gdb 2806	4.06387	2.01892	1.53352	1.6859	59.8	-0.2573	0.0669	0.3241	820.6642	0.14827	-346.831175	-346.82354	-346.822596	-346.862823	28.084	
O	 0.0815036538	 1.2384149131	-0.4584625079	-0.421372
C	 0.0267951089	-0.1616869846	-0.227939235	-0.087846
C	-1.4045847704	-0.5175131409	 0.1361230627	-0.022645
C	-2.4000080486	-0.4297414256	-1.0566996119	-0.220868
C	-2.270007771	-1.9660064226	-1.2570666234	-0.261672
C	-1.6864330247	-2.0547447674	 0.1761968672	 0.143511
O	-0.6532259723	-2.9662731241	 0.4684789268	-0.430488
H	 0.991158031	 1.4747226985	-0.6620964679	 0.28548
H	 0.3448503922	-0.7157117279	-1.1294092222	 0.065215
H	 0.6972002675	-0.4628040611	 0.5915007498	 0.096861
H	-1.6789370961	 0.0414887373	 1.0350194582	 0.074563
H	-3.4027238123	-0.137497527	-0.7365144752	 0.103025
H	-2.0991185979	 0.2131373848	-1.8855640013	 0.11107
H	-3.1705249696	-2.5439504987	-1.4767263675	 0.100863
H	-1.5122174194	-2.2140945047	-2.0087871263	 0.091893
H	-2.4744162356	-2.2689603079	 0.9041261821	 0.092891
H	-0.0127994257	-2.9359029212	-0.2493108681	 0.279521
102.3288	142.4365	174.1206	262.6178	294.298	315.2437	393.3248	448.4513	562.1568	655.2893	757.725	840.1949	896.7801	920.3942	946.9759	963.8658	1058.7344	1072.22	1079.2028	1137.8388	1152.389	1183.8542	1225.3331	1245.6426	1249.5783	1256.2442	1285.0073	1304.5816	1320.8293	1365.6833	1437.3803	1461.7152	1482.6882	1499.2205	1524.2347	2936.8909	2995.5095	3045.0475	3062.743	3069.8217	3078.3391	3105.4073	3127.6462	3815.368	3827.7669
OCC1CCC1O	OC[C@H]1CC[C@H]1O	
InChI=1S/C5H10O2/c6-3-4-1-2-5(4)7/h4-7H,1-3H2	InChI=1S/C5H10O2/c6-3-4-1-2-5(4)7/h4-7H,1-3H2/t4-,5-/m1/s1
