17
gdb 2155	3.5273	2.843	1.69921	2.7225	63.71	-0.234	-0.0123	0.2218	760.255	0.148988	-309.763785	-309.756773	-309.755829	-309.794758	26.25	
C	-0.2444615115	 1.5335354054	 0.0219115524	-0.405363
C	 0.0831743824	 0.0444699527	-0.0350795087	-0.06384
C	 0.8961838104	-0.4576991384	-1.2401734285	-0.22087
C	 1.5079045259	-1.7909777964	-0.7568780054	-0.217857
C	 1.879154682	-1.5194354904	 0.7100161438	-0.311695
C	 0.8890449164	-0.4465994927	 1.1786713688	 0.403483
O	 0.7680011984	-0.0407815463	 2.3064649729	-0.322756
H	 0.6647948374	 2.1364310656	-0.0766107985	 0.116727
H	-0.9293699221	 1.8226328721	-0.7807180513	 0.112134
H	-0.705068895	 1.7806479157	 0.9820256243	 0.138025
H	-0.8568991072	-0.5299551453	 0.0066224667	 0.101961
H	 0.2953013513	-0.5695676646	-2.1464280687	 0.101558
H	 1.6953114674	 0.260464673	-1.4670590544	 0.101217
H	 0.7541838185	-2.5851313761	-0.8126514733	 0.105356
H	 2.35883246	-2.1104957828	-1.3631517495	 0.103319
H	 1.8554911448	-2.3911560862	 1.3686166246	 0.126954
H	 2.885154751	-1.0875313454	 0.7936388149	 0.131646
81.7342	201.4629	202.0293	252.0424	353.9248	459.5748	544.7025	554.2047	617.9366	702.0565	820.495	863.327	900.9091	934.7424	968.1769	993.7277	1018.5126	1052.7192	1148.3781	1158.945	1175.8403	1207.4317	1233.8982	1297.3683	1307.523	1311.5079	1338.91	1359.2705	1408.7133	1448.1276	1492.9725	1497.7211	1498.5039	1506.6218	1840.8425	2979.043	3026.1013	3034.5996	3037.9618	3042.3659	3092.6887	3098.4247	3103.7867	3106.2773	3122.2074
CC1CCCC1=O	C[C@H]1CCCC1=O	
InChI=1S/C6H10O/c1-5-3-2-4-6(5)7/h5H,2-4H2,1H3	InChI=1S/C6H10O/c1-5-3-2-4-6(5)7/h5H,2-4H2,1H3/t5-/m0/s1
