12
gdb 559	9.75537	2.43167	2.1475	2.8301	46.71	-0.2487	-0.0357	0.2129	575.5626	0.095537	-306.349558	-306.343561	-306.342617	-306.37988	19.792	
O	-0.5534523947	 0.8784403492	-1.0456275058	-0.237679
C	 0.1508523861	 0.7478728531	-0.0791391787	 0.133883
C	 1.4495929953	 1.4988100668	 0.1300817785	 0.069307
C	 1.3381271107	 2.7601766823	 1.0319852707	-0.291015
C	 2.347027794	 2.0186807804	 1.9317045212	-0.060011
O	 2.3107994614	 0.8494849977	 1.082201517	-0.286166
H	-0.1115270129	 0.0745629725	 0.7692767257	 0.087297
H	 1.935319486	 1.6662780183	-0.8385387276	 0.104941
H	 1.6776571287	 3.6893133758	 0.5750963365	 0.1294
H	 0.3530131381	 2.9161018428	 1.4758899221	 0.125259
H	 3.3502008147	 2.4594318474	 1.9717569746	 0.111288
H	 2.0153659325	 1.7925412638	 2.9510910258	 0.113497
63.8592	89.3564	261.5894	343.2293	479.4732	769.0391	824.9043	879.7511	915.174	954.4289	1021.8229	1050.1082	1085.2426	1142.0013	1169.5604	1211.8088	1253.9462	1255.8371	1314.7646	1354.482	1398.6591	1490.0552	1531.2129	1833.7293	2876.205	3024.6553	3042.7	3068.5572	3084.5443	3145.3776
O=CC1CCO1	O=C[C@H]1CCO1	
InChI=1S/C4H6O2/c5-3-4-1-2-6-4/h3-4H,1-2H2	InChI=1S/C4H6O2/c5-3-4-1-2-6-4/h3-4H,1-2H2/t4-/m1/s1
