16
gdb 4501	3.5452	1.76227	1.19463	2.3466	68.71	-0.1858	0.0488	0.2347	994.4398	0.129949	-379.972367	-379.963729	-379.962785	-380.00557	30.545	
C	-0.1907288323	 1.4685822138	 0.0397680873	-0.497598
C	-0.0599894042	-0.0155331559	-0.0184997955	 0.329406
N	-0.1803730715	-0.7646133917	-1.0861351543	-0.339409
C	 0.0168980379	-2.0787268716	-0.6837050125	 0.143939
C	-0.0457643189	-3.2245029439	-1.6399959769	-0.498532
C	 0.2599960838	-2.0926474381	 0.6631980061	 0.298134
O	 0.51710127	-3.0564486877	 1.5846788607	-0.43935
N	 0.2121621324	-0.7874809733	 1.088445716	-0.334476
H	 0.7290163954	 1.9507582204	 0.3927433951	 0.126473
H	-0.4059127219	 1.834239947	-0.9651734434	 0.155059
H	-1.0039703484	 1.7858819433	 0.7038282023	 0.126472
H	 0.1360279015	-4.1819690348	-1.1369936587	 0.089169
H	-1.0265294625	-3.2913809604	-2.124212272	 0.134616
H	 0.7020781716	-3.1264850763	-2.4349545919	 0.134632
H	 0.5173937786	-3.907975531	 1.1364761842	 0.306735
H	 0.3533474487	-0.4822668899	 2.0367560936	 0.264731
73.0421	104.7187	178.2278	198.3587	243.603	251.1355	281.9225	362.417	465.1905	495.7075	612.6081	647.4366	677.6992	690.2066	808.5119	972.178	999.2794	1047.5419	1060.1402	1061.1376	1139.4446	1215.2174	1246.5785	1308.4451	1407.0699	1420.781	1433.6566	1467.8807	1481.4879	1494.5427	1499.4898	1520.9818	1589.68	1669.1613	3018.4755	3022.0746	3067.8372	3078.6412	3079.6978	3145.2069	3664.2437	3839.3639
CC1=NC(C)=C(O)N1	Cc1nc(C)c(O)[nH]1	
InChI=1S/C5H8N2O/c1-3-5(8)7-4(2)6-3/h8H,1-2H3,(H,6,7)	InChI=1S/C5H8N2O/c1-3-5(8)7-4(2)6-3/h8H,1-2H3,(H,6,7)
