12
gdb 2881	6.67323	2.05601	1.76234	1.609	55.89	-0.2599	0.0112	0.2711	689.651	0.090665	-323.347112	-323.340873	-323.339929	-323.377788	22.104	
C	 0.0817455762	-1.1820229776	 0.0601419742	-0.463133
C	 0.0475832591	 0.0179343049	 0.016826911	 0.346572
C	-0.0278661968	 1.4743563449	-0.0089654611	-0.163599
C	-0.624679258	 2.0849239958	 1.3015056507	-0.117818
O	 0.3994043843	 2.9973628626	 1.7587484666	-0.21576
C	 1.4118132376	 2.883336826	 0.8698850955	 0.131921
N	 1.3144603807	 2.103839462	-0.1236578379	-0.256832
H	 0.1236154015	-2.2429366342	 0.0872455482	 0.203261
H	-0.6178527672	 1.7788304852	-0.8817025699	 0.123034
H	-1.540871981	 2.6539664349	 1.1302164574	 0.127632
H	-0.7945268478	 1.3353053643	 2.076540355	 0.135823
H	 2.2708862115	 3.5071082612	 1.0910824103	 0.148899
51.087	171.6656	227.6482	440.6291	500.5022	567.42	627.4163	655.7601	726.2047	834.7708	878.614	962.6812	965.8809	987.9029	1040.6366	1077.6369	1137.0377	1219.3047	1271.6506	1314.2459	1347.9191	1374.677	1515.3734	1705.141	2242.3823	3030.3144	3072.6742	3128.6103	3218.1238	3503.4964
C#CC1COC=N1	C#C[C@H]1COC=N1	
InChI=1S/C5H5NO/c1-2-5-3-7-4-6-5/h1,4-5H,3H2	InChI=1S/C5H5NO/c1-2-5-3-7-4-6-5/h1,4-5H,3H2/t5-/m0/s1
