16
gdb 1281	6.15033	1.33409	1.23569	5.3151	57.48	-0.248	0.0213	0.2693	983.9296	0.136774	-362.945907	-362.938068	-362.937124	-362.978657	27.354	
C	 0.0631795709	 1.5226097749	-0.0300849999	-0.39188
C	 0.2729260579	 0.012911871	-0.0428792443	-0.119099
N	 0.0656177435	-0.5392233387	-1.3875383756	-0.31202
H	-0.8523618829	-0.277298243	-1.7281277777	 0.231863
H	 1.7680089244	-0.5385510383	-2.2820005746	 0.301429
C	 0.2596381928	-1.9850824415	-1.4798976128	-0.308908
C	 1.7220180916	-2.3293314003	-1.8109457287	 0.422404
O	 2.4075842012	-1.2847278022	-2.2993449293	-0.362528
O	 2.1918448644	-3.4251333444	-1.6734876829	-0.331073
H	 0.7465388706	 2.0184978915	-0.7255320541	 0.130141
H	-0.961748813	 1.7821948667	-0.3195107521	 0.117509
H	 0.2360546928	 1.925399631	 0.971643063	 0.128378
H	 1.3007815944	-0.2244548851	 0.2565796361	 0.125557
H	-0.3884460696	-0.4691094753	 0.6966059612	 0.099223
H	-0.0235458264	-2.535774185	-0.5731147457	 0.12956
H	-0.3479632325	-2.3811098312	-2.3005753825	 0.139446
72.5801	77.5696	112.8051	247.7952	279.5052	319.2276	386.4924	548.3533	562.0118	658.6032	761.2045	820.2806	854.8699	863.0441	902.1928	999.8943	1040.9097	1129.3171	1141.0215	1160.4352	1216.4265	1271.6722	1295.8398	1354.9657	1381.4453	1416.9196	1425.0916	1469.2246	1474.4481	1495.6611	1499.2578	1522.0317	1880.3665	2965.7729	3023.3522	3035.5634	3051.9971	3082.7799	3103.9965	3122.8904	3472.0947	3536.8524
CC[NH2+]CC([O-])=O	CCNCC(=O)O	
InChI=1S/C4H9NO2/c1-2-5-3-4(6)7/h5H,2-3H2,1H3,(H,6,7)	InChI=1S/C4H9NO2/c1-2-5-3-4(6)7/h5H,2-3H2,1H3,(H,6,7)
