13
gdb 4415	3.72368	1.98142	1.29326	5.2097	64.49	-0.2076	-0.0256	0.182	861.4221	0.097751	-398.676693	-398.670299	-398.669355	-398.707079	24.944	
O	-0.1158777402	 1.3449971656	 0.0108315256	-0.412084
C	 0.0679861794	 0.0087821149	 0.0025850637	 0.516137
C	 1.2683111856	-0.6475438849	-0.0077262359	-0.341249
C	 1.2305317076	-2.0668765754	-0.0151215901	-0.021567
C	 0.0619113523	-2.7709067771	-0.0123299906	-0.270763
C	-1.219197783	-2.1006923853	-0.0016533478	 0.429824
O	-2.3307496749	-2.5992270172	 0.0021597536	-0.397787
N	-1.0945992962	-0.6844349169	 0.0053785129	-0.403698
H	 0.7432636592	 1.7809288112	 0.0084582342	 0.315126
H	 2.2002214387	-0.0981063284	-0.0100139984	 0.094459
H	 2.1745313331	-2.6036817752	-0.0232744082	 0.110919
H	 0.0399687109	-3.8526092647	-0.0179436874	 0.113007
H	-1.9666810226	-0.1717988066	 0.0130863083	 0.267675
171.8377	216.1579	349.1931	373.4313	437.4235	517.909	528.6168	546.3204	643.3896	696.7423	724.4595	753.0477	764.9191	839.9785	939.9637	992.0654	1028.408	1076.7139	1162.2383	1197.0439	1220.7877	1291.7156	1355.7688	1447.6104	1527.4975	1603.5737	1669.1991	1789.3249	3174.7146	3213.7202	3225.4063	3601.9784	3826.5923
OC1=CC=CC(=O)N1	Oc1cccc(=O)[nH]1	
InChI=1S/C5H5NO2/c7-4-2-1-3-5(8)6-4/h1-3H,(H2,6,7,8)	InChI=1S/C5H5NO2/c7-4-2-1-3-5(8)6-4/h1-3H,(H2,6,7,8)
