18
gdb 2037	4.38412	2.44968	2.16614	1.647	66.82	-0.229	0.0814	0.3104	711.3698	0.160172	-289.799552	-289.792565	-289.791621	-289.829761	27.458	
C	-0.0639132865	 1.5740488761	 0.0320567844	-0.449414
C	 0.0270461958	 0.0492972188	 0.0246512236	 0.327493
C	-1.3477448343	-0.5768336811	-0.2208038717	-0.440335
C	 1.127825301	-0.6146147857	-0.8607844524	-0.211383
N	 1.6967484039	-1.388070314	 0.3014133881	-0.126968
C	 2.1897967544	-0.3646326057	 1.2400063692	-0.251754
C	 0.7390651244	-0.6272284965	 1.2067826903	-0.051953
H	 0.9061910588	 2.0435863585	 0.2187413543	 0.111663
H	-0.431902026	 1.9443523415	-0.9319696977	 0.114052
H	-0.7583345823	 1.921207056	 0.805831423	 0.114683
H	-1.7527033895	-0.2616446838	-1.1889340461	 0.112725
H	-1.2915593071	-1.6700200378	-0.216191788	 0.124461
H	-2.0611753193	-0.2730028306	 0.5540921133	 0.111802
H	 0.736577035	-1.2966174597	-1.6192072715	 0.106202
H	 1.8546068882	 0.059510215	-1.3282931233	 0.095545
H	 2.7534148114	-0.7852917491	 2.0676378488	 0.118908
H	 2.5980549058	 0.562730374	 0.8435142336	 0.107914
H	 0.2259608265	-1.1231782258	 2.0269180722	 0.086359
185.6883	218.238	251.7411	271.271	343.6634	374.4907	454.1043	496.7703	620.1039	742.972	774.6498	852.3412	872.2852	932.4799	959.254	974.3233	998.5976	1001.5087	1040.009	1065.4209	1108.2133	1118.3438	1191.6233	1216.3397	1228.6473	1245.6788	1274.0481	1297.6822	1374.7967	1401.47	1423.17	1485.1016	1485.2169	1494.62	1501.9639	1509.2591	1514.6736	3021.7299	3026.4335	3036.2819	3085.2202	3090.5916	3099.4269	3102.4846	3104.5113	3107.1624	3140.2007	3192.3654
CC1(C)CN2CC12	CC1(C)CN2C[C@@H]12	
InChI=1S/C6H11N/c1-6(2)4-7-3-5(6)7/h5H,3-4H2,1-2H3	InChI=1S/C6H11N/c1-6(2)4-7-3-5(6)7/h5H,3-4H2,1-2H3/t5-,7?/m0/s1
