16
gdb 2773	4.82584	2.02997	1.54709	2.0436	63.8	-0.2464	0.0327	0.2791	827.0637	0.136221	-325.776001	-325.768288	-325.767344	-325.808159	26.615	
C	-0.0933917441	 1.4182269957	-0.0796786223	-0.338907
N	-0.167713904	-0.0334716217	-0.1699494546	-0.328209
C	 0.5829783686	-0.6375126442	-0.9652099076	 0.466502
O	 1.5485374432	-0.1579876919	-1.8420568729	-0.268515
C	 1.9024288494	-1.513715632	-2.2483641623	-0.089622
C	 0.8121577287	-2.0957016324	-1.3178863198	-0.141572
C	 1.2348007598	-3.0207184677	-0.1834424262	-0.402516
H	 0.6857818656	 1.8676100827	-0.7063762705	 0.125671
H	-1.0612319677	 1.8460966815	-0.3644762984	 0.126441
H	 0.0856250478	 1.7025416554	 0.9630141486	 0.125352
H	 1.7607583195	-1.6512660524	-3.3232363378	 0.117659
H	 2.9341384641	-1.7476232955	-1.9691975313	 0.116171
H	-0.0323526375	-2.5204718148	-1.8684835528	 0.106286
H	 2.0937356591	-2.6125692577	 0.3586971316	 0.124093
H	 0.4150577271	-3.1416888817	 0.5299167486	 0.142446
H	 1.5076216005	-4.0102202732	-0.5638467823	 0.11872
76.5264	121.4704	147.0333	192.7413	234.6333	285.987	386.348	524.0241	668.4087	715.4392	812.9673	890.9393	924.4826	975.3045	1032.5021	1074.3773	1112.086	1121.5347	1134.1919	1153.2418	1174.1983	1192.2377	1257.2012	1328.5132	1371.0234	1411.1859	1440.2256	1494.5468	1494.6789	1496.3892	1497.9732	1518.2092	1848.8761	3016.676	3038.329	3052.8813	3068.1127	3080.9597	3086.8197	3107.5058	3112.5639	3120.6003
CN=C1OCC1C	CN=C1OC[C@H]1C	
InChI=1S/C5H9NO/c1-4-3-7-5(4)6-2/h4H,3H2,1-2H3	InChI=1S/C5H9NO/c1-4-3-7-5(4)6-2/h4H,3H2,1-2H3/t4-/m1/s1
