9
gdb 3823	9.91946	2.01635	1.67572	4.0224	50.77	-0.2935	-0.0524	0.2411	650.1846	0.058518	-334.429558	-334.424427	-334.423483	-334.458584	17.891	
N	 0.0041637961	-1.1414425438	-0.0036353739	-0.323423
C	-0.0258038312	 0.0147842527	 0.003062095	 0.23829
C	-0.0089512137	 1.4341184126	 0.0107070953	 0.230574
N	-1.1316560269	 2.1694841351	 0.0291828595	-0.251365
N	-0.6683224527	 3.4023131693	 0.0301086458	-0.063916
N	 0.6507455239	 3.556713363	 0.0140407483	-0.171228
C	 1.0999902088	 2.3059956532	 0.0013338977	-0.124897
H	-1.2917119641	 4.195328779	 0.042519712	 0.309958
H	 2.1533549298	 2.0804231489	-0.0134055397	 0.156007
182.1774	187.7948	520.9671	562.267	587.8551	589.4842	720.7518	733.7716	897.7898	992.6354	1029.3568	1153.9764	1221.8466	1247.7435	1355.424	1385.537	1463.9298	1546.2847	2364.3059	3287.3345	3655.1124
N#CC1=NNN=C1	N#Cc1n[nH]nc1	
InChI=1S/C3H2N4/c4-1-3-2-5-7-6-3/h2H,(H,5,6,7)	InChI=1S/C3H2N4/c4-1-3-2-5-7-6-3/h2H,(H,5,6,7)
