18
gdb 1484	3.11831	1.99408	1.42419	3.6266	65.37	-0.2483	0.0344	0.2828	915.0703	0.158888	-327.016183	-327.007455	-327.006511	-327.050161	30.371	
C	 0.0636238686	 1.5663693564	 0.2043617946	-0.381863
C	 0.0285266861	 0.0427426334	 0.0705142791	-0.168806
C	 0.7540397271	-0.7028366163	 1.2036007994	 0.049784
C	 0.5723238866	-2.2213344065	 1.0972391792	-0.394718
N	 2.1744633096	-0.3576218156	 1.2372004464	-0.271082
C	 2.7964799615	 0.1963776435	 2.311884031	 0.154226
O	 2.2628115375	 0.4993038565	 3.3584485672	-0.325683
H	 1.0913513877	 1.9412573718	 0.2010335481	 0.119334
H	-0.4718077681	 2.0450028172	-0.6210614302	 0.112153
H	-0.4019605404	 1.8901917552	 1.140983735	 0.127306
H	-1.0117513168	-0.3039962299	 0.0514470373	 0.101766
H	 0.4648269821	-0.2609984023	-0.8920593969	 0.086001
H	 0.3637947358	-0.3592100687	 2.1660433405	 0.124434
H	 1.0760169763	-2.7316872939	 1.9225342997	 0.127845
H	-0.4891336593	-2.4862440541	 1.1245881856	 0.120853
H	 0.9858948846	-2.6031745694	 0.1558717156	 0.107796
H	 2.7398111071	-0.5861996177	 0.4333427306	 0.240886
H	 3.878281264	 0.3494133703	 2.1217506977	 0.069769
24.4028	103.5928	181.4011	192.2627	223.5534	230.0043	283.09	375.275	435.5812	502.5972	538.3511	735.3467	786.6591	859.2432	905.2223	980.277	1007.0767	1027.9041	1038.5234	1129.5948	1154.9347	1183.7404	1213.4016	1295.0655	1330.6704	1367.2075	1387.2269	1409.2813	1413.0898	1432.0721	1480.3731	1491.1545	1494.7725	1497.1177	1506.8269	1531.3979	1803.8829	2925.4602	3006.7326	3028.7079	3039.5428	3052.9998	3080.8924	3101.8178	3108.0183	3112.9601	3119.3256	3615.0936
CCC(C)NC=O	CC[C@@H](C)NC=O	
InChI=1S/C5H11NO/c1-3-5(2)6-4-7/h4-5H,3H2,1-2H3,(H,6,7)	InChI=1S/C5H11NO/c1-3-5(2)6-4-7/h4-5H,3H2,1-2H3,(H,6,7)/t5-/m1/s1
