16
gdb 637	6.01713	2.59419	2.00512	1.5102	56.58	-0.2585	0.0791	0.3376	658.5353	0.142089	-271.619912	-271.612845	-271.611901	-271.650485	25.76	
C	-0.0046701851	 1.4680656832	-0.1149555851	-0.396138
C	 0.0001388801	-0.0442787972	 0.1186474494	 0.126249
O	 0.6979364068	-0.3769463357	 1.3186030956	-0.432183
C	-1.3966066329	-0.6299416531	 0.0960761668	 0.020829
C	-2.0010063312	-1.1109251366	-1.2004419256	-0.266517
C	-1.59171533	-2.1027232081	-0.1403467991	-0.267394
H	 1.0151165594	 1.8612118972	-0.0886456349	 0.121235
H	-0.4550684234	 1.7163743507	-1.0811756403	 0.118021
H	-0.5867106171	 1.9767018484	 0.6640579585	 0.102973
H	 0.5879174341	-0.5258737245	-0.6734612392	 0.080497
H	 0.2063184904	 0.0022283922	 2.0554032989	 0.27287
H	-2.0847573629	-0.1563167207	 0.7953307051	 0.070231
H	-3.0579399563	-0.940325076	-1.3723509252	 0.11023
H	-1.3920605912	-1.0465130141	-2.0967547623	 0.110997
H	-0.7041073197	-2.7009758125	-0.317189074	 0.118679
H	-2.3699047409	-2.6168729431	 0.4125850513	 0.109422
83.0782	196.7311	233.4335	253.2746	288.4199	360.3467	484.7723	493.6775	755.9233	812.306	830.7837	900.0537	941.7952	960.5394	995.7568	1057.2692	1077.3756	1089.6046	1101.4374	1134.5693	1195.1933	1199.2536	1226.2499	1288.1648	1328.9699	1400.7291	1412.6876	1428.762	1471.3757	1491.8047	1494.3097	1507.7887	3023.2917	3030.3636	3093.8166	3111.6315	3120.0964	3128.5777	3135.6872	3206.8029	3222.4788	3800.6868
CC(O)C1CC1	C[C@@H](O)C1CC1	
InChI=1S/C5H10O/c1-4(6)5-2-3-5/h4-6H,2-3H2,1H3	InChI=1S/C5H10O/c1-4(6)5-2-3-5/h4-6H,2-3H2,1H3/t4-/m1/s1
