17
gdb 1150	5.90647	2.07072	2.06618	1.6818	65.18	-0.2268	0.1023	0.329	731.1213	0.146912	-309.670613	-309.663553	-309.662609	-309.700944	27.348	
C	-0.1266688356	 1.409041573	 0.0135676186	-0.509251
C	 0.0801250148	-0.0728065883	-0.0027182621	 0.41319
C	 0.6659925451	-0.9816700804	-1.114566111	-0.287575
C	 0.0386430311	-1.8781588591	-0.0153781575	 0.413192
C	-0.2359860536	-3.349029723	-0.0198545676	-0.509251
C	 0.719130536	-0.998173987	 1.0653820279	-0.287576
O	-1.1241669769	-0.9484941958	 0.0200065827	-0.374989
H	 0.8375002315	 1.927003009	-0.0056106749	 0.123988
H	-0.7071192693	 1.7256834216	-0.8583688876	 0.131432
H	-0.6644889192	 1.7120702311	 0.9171063488	 0.131443
H	 0.1221335044	-0.9625316795	-2.0608368347	 0.098079
H	 1.7519247302	-1.0057154658	-1.2443592877	 0.086188
H	 0.7033650269	-3.9103903046	-0.0475645573	 0.123988
H	-0.7866671494	-3.6399187646	 0.8799186498	 0.131429
H	-0.8308395957	-3.6261981888	-0.8955178608	 0.131444
H	 1.810087705	-1.0237711031	 1.1417376018	 0.086189
H	 0.2220247648	-0.9935745445	 2.0372061218	 0.098079
190.1094	192.0404	226.8929	227.2959	360.3677	375.6269	516.665	595.3745	597.3424	648.739	693.715	763.0234	860.8863	912.3825	955.767	980.516	1003.4875	1011.0336	1082.1224	1106.7638	1138.1617	1154.2403	1170.1497	1193.0366	1232.0128	1284.6976	1364.2517	1408.9656	1418.756	1464.8503	1476.6056	1477.9404	1489.1092	1489.8868	1524.2775	3038.0033	3038.202	3046.581	3057.7775	3112.0361	3112.2558	3113.0791	3113.2882	3131.5908	3136.8627
CC12CC(C)(C1)O2	C[C@@]12C[C@@](C)(C1)O2	
InChI=1S/C6H10O/c1-5-3-6(2,4-5)7-5/h3-4H2,1-2H3	InChI=1S/C6H10O/c1-5-3-6(2,4-5)7-5/h3-4H2,1-2H3/t5-,6+
