14
gdb 3302	5.79725	2.15287	1.90379	4.267	60.9	-0.2823	0.0287	0.311	687.5431	0.115116	-287.425634	-287.419648	-287.418704	-287.455431	22.59	
N	 0.0045008105	-1.1899734871	-0.1170644367	-0.333496
C	 0.0059532879	-0.0351494931	-0.0554266706	 0.27574
C	 0.0202669345	 1.4193795516	 0.0471413934	-0.153094
C	-0.2178673689	 2.0619345158	 1.4672269648	-0.246016
C	 1.1383722475	 2.7648958026	 1.3504423284	-0.035956
C	 2.2306817604	 1.7502671899	 1.1726863657	-0.277394
C	 1.3902205716	 2.1219825675	-0.0147613711	-0.047169
H	-0.6806003564	 1.8302932337	-0.6831590959	 0.126381
H	-1.0730609215	 2.7391348472	 1.4530914125	 0.119481
H	-0.3293816728	 1.3616315913	 2.2990313785	 0.121086
H	 1.3397823071	 3.7806732302	 1.6650302714	 0.097325
H	 3.2394684488	 2.1490018924	 1.1557203607	 0.121962
H	 2.149361031	 0.7620364677	 1.6191991697	 0.129489
H	 1.8112212902	 2.5446421101	-0.917699871	 0.10166
122.6209	179.9021	312.459	407.8905	522.1984	577.1035	672.6942	783.4545	801.9928	810.7204	930.8473	949.2811	965.3779	1009.9901	1025.0854	1051.1296	1063.6326	1087.4932	1099.3083	1142.7063	1201.3677	1219.4351	1262.3587	1296.1816	1335.8397	1365.7831	1483.6305	1500.3231	2350.5437	3068.6259	3084.6809	3115.1531	3129.0918	3191.9282	3197.9873	3211.263
N#CC1CC2CC12	N#C[C@H]1C[C@H]2C[C@@H]12	
InChI=1S/C6H7N/c7-3-5-1-4-2-6(4)5/h4-6H,1-2H2	InChI=1S/C6H7N/c7-3-5-1-4-2-6(4)5/h4-6H,1-2H2/t4-,5+,6+/m0/s1
