18
gdb 1627	4.36429	1.60886	1.59531	3.9248	65.66	-0.2388	0.0343	0.2731	890.2583	0.158641	-327.010026	-327.001322	-327.000378	-327.043349	30.429	
C	-0.0089569966	 1.560176821	-0.0200050649	-0.386316
C	-0.0349626407	 0.0263457402	 0.0510879396	 0.029404
C	 0.7855848711	-0.501914226	 1.2371382809	-0.385844
N	-1.4008338917	-0.5012078398	 0.0488165855	-0.031046
C	-2.3161047898	-0.1763860657	 1.1312678098	-0.351599
C	-1.8378018161	-1.3045510739	-0.9642419321	 0.15372
O	-2.945324358	-1.792140585	-1.0599538594	-0.349148
H	 1.0203963885	 1.913000002	-0.1346158571	 0.121258
H	-0.5934914173	 1.9213807357	-0.8708888197	 0.124884
H	-0.4120108526	 2.0135434436	 0.891049013	 0.122763
H	 0.4230863167	-0.3575633763	-0.868069404	 0.093419
H	 0.7656616679	-1.5949347295	 1.2693384668	 0.124848
H	 1.8272109187	-0.1791174742	 1.1466629664	 0.121103
H	 0.4065004708	-0.1233321517	 2.1916468929	 0.122709
H	-2.5071634621	 0.9008071453	 1.1853432921	 0.125295
H	-3.2531686984	-0.6942926205	 0.9268877061	 0.170003
H	-1.9248700214	-0.5095210927	 2.0982435638	 0.124895
H	-1.046033169	-1.4729520926	-1.7208650298	 0.069653
43.2751	97.7523	164.6529	236.4172	247.7273	276.1783	312.9979	334.2353	360.3816	442.9528	508.7917	634.8946	840.8753	900.2588	926.4281	944.9018	1027.2983	1047.4532	1118.1197	1133.1503	1160.5046	1188.2229	1271.9905	1337.4945	1344.5731	1397.6667	1415.7571	1435.8771	1441.9273	1455.8174	1483.874	1487.9788	1499.1343	1507.9004	1512.5722	1518.7852	1791.9099	2932.2869	3032.2184	3037.8869	3038.4833	3043.9206	3085.9811	3107.0903	3114.136	3116.983	3119.3472	3156.2433
CC(C)N(C)C=O	CC(C)N(C)C=O	
InChI=1S/C5H11NO/c1-5(2)6(3)4-7/h4-5H,1-3H3	InChI=1S/C5H11NO/c1-5(2)6(3)4-7/h4-5H,1-3H3
