17
gdb 2239	4.59453	2.61551	2.14475	1.6121	63.62	-0.2473	0.0928	0.3401	682.8931	0.14979	-309.716094	-309.709648	-309.708704	-309.745933	25.142	
C	-0.0619708828	 1.5326668502	 0.0492122094	-0.487331
C	 0.0528197838	 0.0294855514	 0.0111088639	 0.33454
C	-0.8173345985	-0.8510665427	 0.8748465885	-0.325982
C	 0.6725407162	-0.8011112224	 1.1144926065	-0.092354
C	 1.4845458051	-1.87650334	 0.4182069801	-0.090444
O	 0.9717081495	-1.938090883	-0.9107696529	-0.255353
C	 0.5305154215	-0.6344282786	-1.2736036868	-0.131804
H	 0.879965155	 2.0127616441	-0.2414618128	 0.116661
H	-0.8409402166	 1.8917095277	-0.6339059232	 0.12005
H	-0.3200130498	 1.883958605	 1.0529928972	 0.118132
H	-1.4539279145	-0.3554589886	 1.6000803528	 0.106153
H	-1.2363066403	-1.7555241979	 0.4438224867	 0.119304
H	 1.063233143	-0.3460258327	 2.0175264752	 0.084766
H	 2.5543327298	-1.6087069843	 0.42218236	 0.088354
H	 1.3796075536	-2.8776859574	 0.8501062625	 0.106747
H	-0.2486700787	-0.7554844362	-2.0345637214	 0.104619
H	 1.3516190838	-0.0415427446	-1.7129921456	 0.083942
203.5364	217.0686	250.5033	310.4502	377.777	413.0689	565.467	687.4167	729.7147	830.6859	887.5921	919.1113	938.5288	939.1407	975.6834	1031.708	1046.0416	1070.8957	1089.0264	1104.6136	1129.755	1147.3623	1220.6748	1255.0201	1269.4022	1300.5435	1353.1703	1370.5693	1416.0571	1426.2529	1488.2645	1490.2882	1502.6845	1512.041	1523.575	2953.1924	2967.1625	3022.2844	3058.6255	3063.9753	3078.9589	3100.1911	3123.9898	3176.0085	3212.0623
CC12CC1COC2	C[C@]12C[C@H]1COC2	
InChI=1S/C6H10O/c1-6-2-5(6)3-7-4-6/h5H,2-4H2,1H3	InChI=1S/C6H10O/c1-6-2-5(6)3-7-4-6/h5H,2-4H2,1H3/t5-,6+/m0/s1
