15
gdb 4557	4.03544	1.74352	1.23132	4.5378	64.77	-0.1753	0.0527	0.228	941.2173	0.120164	-396.033394	-396.025387	-396.024443	-396.065515	29.14	
C	-0.0300765956	 1.4389111861	 0.0458256457	-0.343647
N	-0.0314581709	-0.0030681977	 0.0228423653	-0.086478
C	-1.1576159407	-0.8446159614	 0.019794484	-0.199508
C	-0.7129064026	-2.1200995973	 0.0328861157	 0.306127
N	-1.3641599723	-3.3561919931	 0.1274708648	-0.601083
N	 0.6781909552	-2.0706604646	 0.0124776737	-0.391819
C	 1.1328007528	-0.7521069247	 0.0337023774	 0.459477
O	 2.2851312263	-0.3574029439	 0.057861044	-0.4493
H	 1.0138382137	 1.7574286377	 0.0456079918	 0.169313
H	-0.5326853883	 1.853218339	-0.8358119238	 0.125596
H	-0.5230205595	 1.825615116	 0.9454277911	 0.126601
H	-2.1601831991	-0.4549897016	-0.0122940651	 0.120421
H	-2.3625108474	-3.236093526	 0.2447681577	 0.250174
H	-1.2045415655	-3.9431496137	-0.6866818349	 0.24861
H	 1.2910197439	-2.8470329348	 0.1912234927	 0.265515
118.92	143.6464	192.2521	214.2706	273.7405	305.7951	341.7637	415.1349	543.0603	610.5329	622.7004	642.0433	700.1075	749.7082	809.4853	849.4335	1013.5063	1060.3598	1141.0106	1159.1376	1176.0343	1206.192	1296.7703	1329.7527	1421.777	1452.2735	1471.138	1494.2029	1516.9157	1638.4687	1713.0372	1822.2761	3020.619	3071.7171	3143.5824	3283.3923	3489.8349	3603.7231	3687.482
CN1C=C(N)NC1=O	Cn1cc(N)[nH]c1=O	
InChI=1S/C4H7N3O/c1-7-2-3(5)6-4(7)8/h2H,5H2,1H3,(H,6,8)	InChI=1S/C4H7N3O/c1-7-2-3(5)6-4(7)8/h2H,5H2,1H3,(H,6,8)
