12
gdb 1851	6.59712	2.22152	1.68313	3.8761	52.23	-0.2349	0.0043	0.2392	684.1636	0.092292	-356.752533	-356.746438	-356.745494	-356.78226	22.81	
N	 0.0242039768	 1.3637415848	 0.1495495498	-0.578772
C	-0.0306930955	-0.0060130214	 0.0297744201	 0.436062
N	-1.0999455009	-0.711563431	 0.018057567	-0.313359
C	-0.6620537856	-2.1046821765	-0.0175396815	-0.291988
C	 0.8738648673	-2.0873707436	-0.0252304149	 0.401011
O	 1.6706890271	-2.990523673	-0.0208563495	-0.356948
N	 1.1670041424	-0.7243900866	-0.0294929935	-0.36961
H	 0.7440254571	 1.8227549459	-0.3908075356	 0.255698
H	-0.885093955	 1.7889123659	 0.0283585676	 0.268425
H	-1.0225074215	-2.670978354	 0.8496672956	 0.142735
H	-1.0353697319	-2.6208989691	-0.9100854751	 0.142098
H	 2.0949491497	-0.3564031514	 0.1052123201	 0.264647
138.7636	267.9909	335.5984	365.0146	442.0103	515.7038	560.077	623.8073	643.2782	713.1135	753.2498	883.4762	980.9391	986.5949	1023.1194	1162.657	1182.3615	1205.1415	1289.6352	1299.8149	1453.3336	1485.9867	1627.8373	1734.6787	1860.5441	3038.5373	3068.6097	3557.9513	3650.157	3661.4969
NC1=NCC(=O)N1	NC1=NCC(=O)N1	
InChI=1S/C3H5N3O/c4-3-5-1-2(7)6-3/h1H2,(H3,4,5,6,7)	InChI=1S/C3H5N3O/c4-3-5-1-2(7)6-3/h1H2,(H3,4,5,6,7)
