14
gdb 518	12.55557	1.27566	1.25351	1.263	58.63	-0.2418	0.0372	0.279	959.5388	0.117895	-270.39928	-270.39147	-270.390525	-270.432574	25.564	
C	 0.2743406805	 1.4780386834	-0.1735830911	-0.364634
C	-0.233980239	 0.0725947067	 0.1954015869	-0.312817
C	 0.4638193944	-0.51243436	 1.3350616574	 0.076652
C	 1.0577809291	-0.9785107543	 2.2728064649	 0.078671
C	 1.7549526894	-1.5404336707	 3.4218704856	-0.213302
O	 2.8681442296	-2.3109760831	 2.9805491684	-0.409829
H	 1.3371189174	 1.4510544726	-0.4284750774	 0.130847
H	-0.27755657	 1.8704710815	-1.0329988208	 0.113182
H	 0.1462283383	 2.1698191092	 0.6634410634	 0.126429
H	-1.3092965263	 0.1150896685	 0.412041315	 0.128278
H	-0.1298948473	-0.5948451427	-0.6696770129	 0.132675
H	 2.0787888696	-0.7206043394	 4.0842384847	 0.112848
H	 1.0516625967	-2.1583196784	 4.004394994	 0.113259
H	 3.3006580976	-2.6625370732	 3.7654894817	 0.287742
14.3114	119.7606	127.8978	227.0253	230.6406	297.9637	350.3197	490.7268	548.5187	727.6004	783.3549	954.3255	1027.8591	1046.0633	1080.2064	1103.101	1155.9487	1246.6894	1257.059	1286.5413	1351.4258	1408.7028	1459.8275	1471.8875	1494.8559	1504.2618	1505.5105	2372.5537	2959.3121	2976.0034	3020.2721	3044.1242	3047.6261	3117.1409	3124.237	3816.3531
CCC#CCO	CCC#CCO	
InChI=1S/C5H8O/c1-2-3-4-5-6/h6H,2,5H2,1H3	InChI=1S/C5H8O/c1-2-3-4-5-6/h6H,2,5H2,1H3
