9
gdb 3838	3.16722	1.72465	1.14633	1.5602	46.87	-0.2764	-0.0525	0.2239	908.5408	0.049182	-371.608385	-371.599086	-371.598142	-371.646563	25.722	
N	-0.2239333602	 1.3040179131	-0.294426538	-0.511433
C	-0.8213268308	 0.2728253506	-0.0955466245	 0.539204
N	-1.6051120481	-0.6662795557	 0.0472396893	-0.325439
C	-1.4053633616	-1.9790455731	-0.411733077	 0.130862
O	-0.3463650296	-2.4638755811	-0.7105752036	-0.251039
N	 2.9453077666	-1.9104206923	 0.1302553212	 0.010222
N	 2.3724707313	-0.988330544	 0.2976652874	-0.011985
H	 0.6336493724	 1.5603157811	 0.1721722853	 0.303927
H	-2.3542311099	-2.5360389485	-0.4321200401	 0.115681
22.2928	37.7845	48.0759	49.148	71.397	110.947	183.6001	392.5622	523.1222	584.2691	761.3586	830.9052	947.8381	1044.7187	1400.2859	1444.9377	1783.3316	2242.0482	2434.7527	3028.1662	3647.0426	22.2874	37.7838	48.0744	49.1472	71.396	110.9463	183.5994	392.5627	523.1222	584.2693	761.3587	830.9056	947.8378	1044.7181	1400.2858	1444.9377	1783.3302	2242.0479	2434.7526	3028.1658	3647.0428
N=C1N=CON=N1	[NH][C][N]C=O.N#N	
InChI=1S/C2H2N4O/c3-2-4-1-7-6-5-2/h1,3H	InChI=1S/C2H2N2O.N2/c3-1-4-2-5;1-2/h2-3H;
