14
gdb 4597	5.68818	1.56428	1.23628	6.0464	67.72	-0.2308	-0.0556	0.1753	929.7967	0.109199	-378.792315	-378.785409	-378.784465	-378.823658	25.344	
C	-0.0104977714	 1.5544157062	 0.0060804257	-0.499199
C	-0.027846675	 0.050667639	 0.0098124473	 0.202781
C	-1.15907268	-0.6904287449	-0.1555655626	-0.024392
N	-1.0914983875	-2.0429072279	-0.1392724847	-0.336211
C	 0.1021684194	-2.7837483619	 0.0421737093	 0.442207
O	 0.0603043524	-3.9937745734	 0.0415693288	-0.382352
N	 1.251441097	-2.0210144666	 0.2099574044	-0.316866
C	 1.162806225	-0.7214219319	 0.1907224115	-0.013966
H	 0.6293473283	 1.9490158527	-0.7913806003	 0.139283
H	-1.0150527683	 1.9593460832	-0.1451475018	 0.126952
H	 0.3695831014	 1.9560934999	 0.9522221201	 0.139302
H	-2.1423077763	-0.2558902958	-0.304202738	 0.135821
H	-1.922151797	-2.6048803887	-0.2604703139	 0.270145
H	 2.102370582	-0.1805723201	 0.3281973541	 0.116495
92.6326	113.6488	286.4083	296.6626	400.1668	479.4462	489.7243	510.1047	654.7905	703.2782	770.5387	810.2504	839.8375	920.0776	988.6514	1008.5239	1029.1258	1077.2854	1107.1697	1213.4776	1263.6762	1373.5068	1423.323	1435.2444	1460.6905	1481.0907	1500.623	1567.5583	1703.7335	1814.5986	3028.5347	3081.0484	3098.8076	3110.2157	3186.3162	3612.1298
CC1=CNC(=O)N=C1	Cc1c[nH]c(=O)nc1	
InChI=1S/C5H6N2O/c1-4-2-6-5(8)7-3-4/h2-3H,1H3,(H,6,7,8)	InChI=1S/C5H6N2O/c1-4-2-6-5(8)7-3-4/h2-3H,1H3,(H,6,7,8)
