16
gdb 2016	5.66943	2.13918	2.06663	1.7476	60.99	-0.243	0.0781	0.3211	701.4155	0.137544	-325.687098	-325.680635	-325.679691	-325.717535	24.235	
C	-0.0427268159	 1.3712899562	 0.0136710088	-0.264827
O	 0.0331871601	-0.0423979584	-0.0223216215	-0.278559
C	 0.6526070156	-0.5433760696	-1.1454032198	 0.391595
C	 2.1089104426	-0.3660256128	-1.6610507774	-0.234796
N	 1.4965618458	-1.352001119	-2.6660861403	-0.137442
C	 0.8674745563	-2.032031518	-1.435840712	-0.220729
C	 0.26134577	-0.4403605205	-2.6468928755	-0.234794
H	 0.9554250835	 1.8315170005	 0.0050081096	 0.113961
H	-0.6179921894	 1.7684058754	-0.8345983829	 0.11396
H	-0.5491007163	 1.6415491057	 0.9422944326	 0.132706
H	 2.3968282795	 0.5865123474	-2.1127771751	 0.100458
H	 2.920721952	-0.7958698853	-1.0688559581	 0.104223
H	 1.5889780743	-2.5777697001	-0.8230292002	 0.104781
H	-0.0070838279	-2.6419837767	-1.6746736729	 0.104782
H	-0.653461359	-0.9396726712	-2.9760026404	 0.104223
H	 0.4167852587	 0.5068467264	-3.169309235	 0.100458
84.4691	182.8623	211.1927	380.0556	428.6284	580.013	593.7454	619.0801	788.1938	798.1247	878.0131	943.0938	959.1882	992.6899	1023.0862	1023.7626	1080.9035	1151.1986	1161.7558	1170.7637	1172.5287	1181.7838	1187.7392	1193.8117	1237.255	1259.385	1314.4048	1485.8782	1491.4855	1505.6822	1506.2872	1509.66	1564.8466	2992.0312	3043.741	3052.6429	3055.0775	3064.5392	3121.5635	3125.9092	3127.9932	3129.7265
COC12CN(C1)C2	CO[C@@]12CN(C1)C2	
InChI=1S/C5H9NO/c1-7-5-2-6(3-5)4-5/h2-4H2,1H3	InChI=1S/C5H9NO/c1-7-5-2-6(3-5)4-5/h2-4H2,1H3
