15
gdb 3202	4.07978	3.44883	3.05944	1.3342	55.48	-0.2416	0.0938	0.3354	553.3466	0.128276	-345.65152	-345.646374	-345.64543	-345.680182	20.786	
C	-0.0300472617	 1.563916741	-0.0255887961	-0.077643
O	 1.3602397919	 1.9558071502	 0.0099581437	-0.283733
C	 2.1039821359	 0.7307307726	 0.0877657759	 0.08025
C	 1.8302306475	 0.1070034123	 1.4626328988	-0.077643
O	 0.4617434182	-0.3413696243	 1.344541064	-0.283733
C	 0.0466426068	 0.0322334073	 0.0223727762	 0.08025
C	 1.3067114111	-0.2180480663	-0.8210957087	-0.239604
H	-0.5573784225	 1.9631841202	 0.8472291488	 0.109633
H	-0.5008437289	 1.9463464039	-0.9406700573	 0.097649
H	 3.1477783583	 0.9347485329	-0.1476823633	 0.084126
H	 2.482727966	-0.7461986131	 1.689720649	 0.097649
H	 1.9161349005	 0.8514290986	 2.2612283821	 0.109633
H	-0.8695579039	-0.5023707539	-0.2253056418	 0.084126
H	 1.2423815803	 0.1405264575	-1.8497716852	 0.109519
H	 1.6342319606	-1.2585220089	-0.7889616562	 0.109519
215.5593	383.8352	431.5061	477.5704	612.8572	774.2352	818.0557	848.9109	866.2647	906.5283	929.8151	955.0544	964.9488	973.3852	1012.3951	1054.3355	1074.373	1106.964	1141.7917	1190.5791	1203.3864	1233.4964	1268.8195	1297.7409	1308.2177	1319.6925	1374.2943	1379.8355	1480.1435	1511.258	1517.1587	3014.6905	3017.1667	3071.4942	3073.2912	3082.6032	3131.7941	3136.9365	3145.5461
C1OC2COC1C2	C1O[C@H]2CO[C@@H]1C2	
InChI=1S/C5H8O2/c1-4-2-6-5(1)3-7-4/h4-5H,1-3H2	InChI=1S/C5H8O2/c1-4-2-6-5(1)3-7-4/h4-5H,1-3H2/t4-,5-/m1/s1
