19
gdb 2205	3.12009	2.54906	1.95743	1.4024	66.36	-0.2489	0.0614	0.3103	776.9339	0.171064	-310.912788	-310.904742	-310.903798	-310.944517	30.163	
C	 0.5575326272	 1.5013900977	-0.0227574077	-0.415216
C	 0.0046638955	 0.0793866103	 0.023772643	-0.007802
C	 0.6865505832	-0.9416432376	-0.9379345633	-0.249225
C	 1.4012603821	-1.6257830683	 0.2676751363	-0.007802
C	 2.899268551	-1.3577430437	 0.3862045774	-0.415216
C	 0.4857341439	-0.7962431716	 1.2284696625	 0.130783
O	 1.0442053811	-0.1766641506	 2.3622358831	-0.425055
H	 1.6536002536	 1.5246361544	 0.0002845576	 0.106594
H	 0.2501135173	 2.0039065018	-0.9458238987	 0.117766
H	 0.1924734746	 2.0939248274	 0.8223871757	 0.125312
H	-1.0851023548	 0.1244223052	-0.0673430682	 0.067596
H	-0.0218927405	-1.5954524679	-1.452265445	 0.097572
H	 1.3518430456	-0.504213381	-1.6892696845	 0.091982
H	 1.2322156037	-2.7048981332	 0.3373547382	 0.067595
H	 3.145180293	-0.2965035046	 0.2607710111	 0.106594
H	 3.2806094543	-1.676519352	 1.3617022834	 0.125312
H	 3.4503029471	-1.9033539411	-0.3869388865	 0.117766
H	-0.3315067956	-1.4099706701	 1.617338541	 0.083974
H	 1.7742774004	 0.3801016516	 2.0742808451	 0.281471
80.4243	215.5491	216.4959	234.6024	249.9373	280.6292	330.4696	366.5796	495.5173	544.0495	725.4262	765.7592	817.6992	831.5672	906.1429	909.9088	966.0179	1018.1858	1054.8675	1076.1806	1101.6295	1144.6103	1177.9725	1184.4096	1227.7239	1267.707	1276.0407	1287.1572	1301.6574	1354.3209	1373.7722	1402.679	1410.4865	1439.3541	1485.6329	1490.7896	1498.6569	1501.6132	1507.4814	3022.5151	3027.5273	3041.4048	3045.8621	3048.6357	3072.6071	3085.0618	3091.4484	3102.0792	3102.2867	3105.3038	3824.0283
CC1CC(C)C1O	C[C@H]1C[C@@H](C)[C@H]1O	
InChI=1S/C6H12O/c1-4-3-5(2)6(4)7/h4-7H,3H2,1-2H3	InChI=1S/C6H12O/c1-4-3-5(2)6(4)7/h4-7H,3H2,1-2H3/t4-,5+,6-
