8
gdb 57	10.16063	4.15847	3.0056	3.3351	37.08	-0.3007	-0.0889	0.2118	397.7757	0.05451	-246.027383	-246.022024	-246.02108	-246.055769	16.963	
C	-0.0117109712	 1.4997377589	-0.0121326782	-0.480151
C	-0.0291973962	-0.0033874528	 0.0715121771	 0.312774
O	-0.0916402827	-0.6459292706	 1.0873224079	-0.244595
C	 0.0383110395	-0.6969025834	-1.2374855698	 0.209216
N	 0.0913628619	-1.2298265039	-2.2622806787	-0.292367
H	 0.9009313161	 1.833706704	-0.5181492776	 0.1672
H	-0.8566393307	 1.8486439962	-0.6161813481	 0.167209
H	-0.0641653967	 1.9213154217	 0.9920381774	 0.160713
137.6233	181.891	266.77	431.5916	603.2082	606.3541	717.5709	981.2867	1046.5879	1193.0121	1388.5511	1456.5786	1463.8553	1808.7667	2337.3261	3040.6566	3104.2546	3161.3472
CC(=O)C#N	CC(=O)C#N	
InChI=1S/C3H3NO/c1-3(5)2-4/h1H3	InChI=1S/C3H3NO/c1-3(5)2-4/h1H3
