15
gdb 2523	3.79419	2.07868	1.48699	5.3542	61.07	-0.2412	-0.0181	0.2232	833.0331	0.124257	-341.853951	-341.846031	-341.845087	-341.886664	26.857	
C	 0.0475074359	 1.5240499341	 0.0021908205	-0.368882
C	 0.0390772096	-0.0040782146	-0.0655308674	-0.185299
N	 0.68567211	-0.5367673337	-1.2694916202	-0.054727
C	 2.0839479313	-0.6129527676	-1.2607072134	 0.091721
N	 2.7990317753	-0.9362953377	-2.2552417069	-0.413696
C	-0.1229496717	-0.9041323081	-2.3442023924	 0.164741
O	 0.2329055276	-1.3261588165	-3.4100202595	-0.271902
H	 1.0700114171	 1.9141468072	-0.0036358438	 0.130028
H	-0.4814943761	 1.9542568224	-0.8534460091	 0.134624
H	-0.4422875653	 1.8669447193	 0.9188772186	 0.125456
H	 0.5373032665	-0.4294235369	 0.8120390513	 0.123749
H	-0.988907275	-0.3763024107	-0.0473717919	 0.127072
H	 2.472493059	-0.3584116623	-0.2660933689	 0.093025
H	 3.7804270594	-0.9347204513	-1.9794183331	 0.229364
H	-1.1912239136	-0.7618664536	-2.0796442836	 0.074728
54.865	104.2962	144.3767	228.6075	239.6185	259.3155	406.3904	427.0129	511.8828	654.0166	786.3696	823.8846	911.0306	964.1823	1020.8377	1067.832	1097.182	1103.2054	1191.1606	1229.7532	1296.2273	1391.6958	1414.1694	1417.0305	1441.4483	1460.2286	1491.0273	1494.1986	1510.7989	1716.0313	1841.2838	2911.6253	3024.8094	3039.7099	3051.1834	3089.6573	3115.4182	3120.3419	3489.7503
CCN(C=N)C=O	CCN(C=N)C=O	
InChI=1S/C4H8N2O/c1-2-6(3-5)4-7/h3-5H,2H2,1H3	InChI=1S/C4H8N2O/c1-2-6(3-5)4-7/h3-5H,2H2,1H3
