10
gdb 2120	3.86078	3.68965	1.90999	4.5755	45.7	-0.2906	-0.0619	0.2287	598.0989	0.067909	-396.486664	-396.481088	-396.480144	-396.516349	19.388	
N	-0.0259973247	 1.2975610682	 0.0096027223	-0.490048
C	 0.0027057299	 0.0412767432	 0.0032346058	 0.277926
O	 1.0999288978	-0.7659364089	-0.0082180088	-0.231605
C	 0.6753727701	-2.1243325797	-0.0118364568	 0.02889
O	-0.7386047732	-2.1361146035	-0.0024263722	-0.217437
C	-1.2136290908	-0.8545777581	 0.0070975124	 0.392047
O	-2.3678604466	-0.572006893	 0.0162899486	-0.291741
H	 0.9154638326	 1.6939071379	 0.0051489647	 0.242913
H	 1.0412452105	-2.617933861	-0.918023131	 0.144531
H	 1.0533093542	-2.6265149752	 0.8846373249	 0.144524
137.7268	162.5971	337.8462	430.8036	564.267	637.9843	750.5465	796.9366	799.9239	909.5672	999.4691	1003.4792	1095.5927	1144.6551	1180.0373	1213.4185	1321.3138	1445.9681	1544.3411	1786.9422	1922.6722	3043.3627	3096.0201	3483.0872
N=C1OCOC1=O	[NH][C]1OCOC1=O	
InChI=1S/C3H3NO3/c4-2-3(5)7-1-6-2/h4H,1H2	InChI=1S/C3H3NO3/c4-2-3(5)7-1-6-2/h4H,1H2
