17
gdb 2389	5.83701	1.95784	1.95758	1.9344	63.5	-0.2419	0.0687	0.3106	738.4633	0.149202	-309.6832	-309.676561	-309.675617	-309.714215	24.578	
C	 0.0588965736	 1.3713996653	-0.5092786937	-0.207315
C	 1.3624910765	 1.6693002334	 0.2811576481	-0.284278
C	 1.3648896985	 0.2007914397	 0.7736371083	 0.32005
C	-0.121427973	 0.0912318897	 0.3518501571	-0.284287
C	 2.400166055	-0.797962342	 0.2094661067	-0.121307
O	 2.8456242832	-1.1573609644	 1.5322530633	-0.274721
C	 1.9065052187	-0.2472420458	 2.1405800396	-0.14134
H	-0.7353268541	 2.1199075802	-0.4720787198	 0.099696
H	 0.2608566831	 1.1345302704	-1.5575059794	 0.10546
H	 2.2376549528	 2.0076734411	-0.2806952305	 0.099811
H	 1.1908141458	 2.3675393433	 1.1069972964	 0.101711
H	-0.7914407922	 0.259515342	 1.2014303067	 0.101712
H	-0.4292548581	-0.8284443819	-0.1536453369	 0.099809
H	 1.9842494025	-1.6588986355	-0.3317585304	 0.096167
H	 3.208293339	-0.3570839479	-0.3902634368	 0.096171
H	 2.4098690792	 0.5331380229	 2.7279998671	 0.096332
H	 1.1861567097	-0.7684777107	 2.7862155041	 0.096328
63.9972	105.8042	258.7563	358.4928	365.5265	484.5082	688.8722	775.8658	846.8585	872.6479	879.3588	906.152	936.5891	950.6684	964.2653	996.634	1039.1514	1068.8837	1149.7397	1158.6499	1186.9484	1187.9184	1203.5071	1229.3097	1255.5258	1272.4781	1277.3529	1303.8759	1310.8134	1384.5023	1472.8269	1483.2968	1502.4268	1507.919	1532.2113	2986.7736	2999.2359	3033.6341	3034.6402	3042.2991	3046.9124	3061.2764	3091.2097	3095.7088	3118.0365
C1CC2(C1)COC2	C1CC2(C1)COC2	
InChI=1S/C6H10O/c1-2-6(3-1)4-7-5-6/h1-5H2	InChI=1S/C6H10O/c1-2-6(3-1)4-7-5-6/h1-5H2
