11
gdb 952	6.0306	2.83994	1.93072	1.3923	54.78	-0.2486	-0.0474	0.2013	601.9397	0.081528	-339.491316	-339.486232	-339.485288	-339.52006	19.287	
O	 0.1014954419	 1.3372611559	-0.0888092764	-0.409903
C	 0.0691030401	-0.0064794832	-0.0457009881	 0.408057
C	-0.0074141133	-0.7293503544	-1.2484314175	-0.069375
N	-0.0413329428	-2.0532703439	-1.2475036893	-0.220702
C	 0.0004882981	-2.6639531237	-0.0547540202	-0.025128
C	 0.0759729342	-1.9406231838	 1.1264505447	-0.017128
N	 0.1107957735	-0.6025869456	 1.1366969631	-0.330733
H	 0.1534803377	 1.6401244405	 0.8288488598	 0.302501
H	-0.0400052498	-0.2094152061	-2.2012889277	 0.126914
H	-0.0271146058	-3.7489276145	-0.0500295024	 0.115592
H	 0.1097274164	-2.4384551811	 2.091758744	 0.119904
210.0972	410.2323	437.1111	501.2202	576.0463	583.2974	645.3903	784.756	868.7445	878.3517	947.8203	980.7189	1022.5356	1084.5869	1155.7511	1223.1175	1270.3266	1341.7819	1355.9725	1479.1938	1510.1056	1594.0154	1635.6099	3164.1241	3175.5698	3187.5832	3762.429
OC1=CN=CC=N1	Oc1cnccn1	
InChI=1S/C4H4N2O/c7-4-3-5-1-2-6-4/h1-3H,(H,6,7)	InChI=1S/C4H4N2O/c7-4-3-5-1-2-6-4/h1-3H,(H,6,7)
