16
gdb 4861	6.71554	1.29729	1.10227	2.2702	68.49	-0.1927	0.052	0.2446	1072.0308	0.131271	-379.963326	-379.955241	-379.954297	-379.995852	28.723	
C	 0.0229948136	 1.3551562914	-0.0040622669	-0.233537
O	-0.028880064	-0.0715678779	-0.0436530064	-0.272613
C	-1.2655831031	-0.5845058111	-0.0006958301	 0.485953
N	-2.4024075941	 0.0511855537	 0.0727522179	-0.368238
C	-3.3577009732	-0.9573835183	 0.087047301	-0.179887
C	-2.7844957306	-2.1942579371	 0.0228484186	 0.303824
C	-3.3476773712	-3.5726669545	 0.0078618843	-0.504663
N	-1.4141132183	-1.9374414267	-0.034829524	-0.39406
H	 1.0813164907	 1.6148903716	-0.0471897869	 0.127212
H	-0.5123266167	 1.785957722	-0.8552605523	 0.139598
H	-0.4271664816	 1.7336616855	 0.9183240604	 0.13959
H	-4.410404748	-0.7245502825	 0.1438915318	 0.101008
H	-3.0875766779	-4.1197304215	-0.9073728577	 0.126259
H	-3.0006580793	-4.1743920356	 0.857615033	 0.126205
H	-4.4377642463	-3.5224746897	 0.0631103653	 0.140904
H	-0.66742335	-2.6088524692	-0.0900546582	 0.262446
88.5917	138.0755	148.9608	206.7518	210.4125	316.1757	344.322	457.4762	497.74	641.2169	652.8135	728.1835	733.2179	821.235	984.5169	991.2209	1046.3127	1065.5074	1080.3979	1176.5174	1184.2853	1218.8157	1231.9571	1278.6063	1378.9517	1419.927	1460.076	1475.8944	1477.6195	1489.033	1500.1577	1512.7457	1609.2182	1642.9019	3013.3643	3041.4355	3056.1138	3112.0498	3120.0229	3149.9438	3247.0362	3671.4145
COC1=NC=C(C)N1	COc1ncc(C)[nH]1	
InChI=1S/C5H8N2O/c1-4-3-6-5(7-4)8-2/h3H,1-2H3,(H,6,7)	InChI=1S/C5H8N2O/c1-4-3-6-5(7-4)8-2/h3H,1-2H3,(H,6,7)
