13
gdb 2003	6.46389	2.0966	2.07997	1.9161	61.1	-0.241	0.0143	0.2553	662.2897	0.100947	-307.209274	-307.203358	-307.202413	-307.238732	23.072	
C	-0.0123141053	-1.1150404053	-0.0525650077	-0.349341
C	-0.0073620822	 0.0862355476	-0.0105262441	 0.075168
C	 0.0139292008	 1.5149029268	 0.0709086947	 0.343352
C	-0.6724628427	 2.455859582	 1.1056981839	-0.247452
C	-0.0801784452	 3.3074576641	-0.0393058113	 0.031025
C	 1.2288114578	 2.4891517672	 0.023782765	-0.247444
O	-0.6172178271	 2.3269772961	-1.0131726885	-0.336666
H	-0.0183294307	-2.176294504	-0.096335116	 0.18956
H	-1.7602704738	 2.3910045259	 1.1243252985	 0.117592
H	-0.2232286823	 2.5298135054	 2.0988055901	 0.101616
H	-0.2259721757	 4.3624655706	-0.263059509	 0.103395
H	 1.8511382045	 2.5661259515	 0.9183927783	 0.101613
H	 1.8017907418	 2.453356622	-0.9026561137	 0.117582
168.5244	172.2577	466.9413	476.5156	538.325	554.9522	605.4569	628.3681	685.8429	727.6762	797.7098	902.6997	917.7212	941.2948	985.8044	989.6511	1081.5914	1089.2646	1114.2276	1164.6597	1217.7737	1234.146	1237.2192	1300.3842	1466.0286	1507.0625	2240.7414	3065.5598	3073.6857	3141.659	3155.8807	3160.1774	3500.8139
C#CC12CC(C1)O2	C#C[C@@]12C[C@@H](C1)O2	
InChI=1S/C6H6O/c1-2-6-3-5(4-6)7-6/h1,5H,3-4H2	InChI=1S/C6H6O/c1-2-6-3-5(4-6)7-6/h1,5H,3-4H2/t5-,6+
