14
gdb 4395	4.0096	1.97392	1.33373	3.3353	67.61	-0.2314	-0.0535	0.1779	874.2036	0.109913	-374.958329	-374.951364	-374.95042	-374.990005	25.223	
C	-0.0130245129	 1.4889390365	 0.0398790855	-0.491908
C	-0.0032757859	-0.0077194386	-0.0412744122	 0.415638
N	-0.0410109391	-0.6112887183	-1.1993823425	-0.321138
C	-0.0260795064	-1.9851675007	-1.1224227929	 0.065235
N	 0.0195227172	-2.7383423897	-0.0691079945	-0.289142
C	 0.059955128	-2.1078803475	 1.1707529084	 0.410265
N	 0.1072178036	-2.6553418034	 2.3186501059	-0.563446
N	 0.0457248705	-0.6956891699	 1.1177097754	-0.321932
H	 0.888598851	 1.8548188941	 0.5427102318	 0.152015
H	-0.0565879398	 1.9005536559	-0.9673375534	 0.167613
H	-0.8777925016	 1.8397427177	 0.6132054653	 0.151849
H	-0.0575755042	-2.489358407	-2.087261227	 0.124598
H	 0.1115695557	-3.6670040155	 2.198732308	 0.228264
H	 0.074701354	-0.2234445638	 2.0112833023	 0.272087
68.492	121.8985	191.2185	309.8332	422.0713	474.3571	551.5943	593.8853	603.3907	715.4475	780.2797	804.1891	860.7878	917.5869	986.1182	1019.4735	1037.0972	1068.5062	1079.8946	1212.8058	1286.4372	1312.7172	1403.6832	1422.9901	1460.332	1482.8109	1501.2266	1585.0918	1652.5178	1742.4719	3044.4299	3102.7051	3148.771	3170.7449	3512.5165	3597.9623
CC1=NC=NC(=N)N1	C[C@H]1N=CN=C([NH])N1	
InChI=1S/C4H6N4/c1-3-6-2-7-4(5)8-3/h2H,1H3,(H2,5,6,7,8)	InChI=1S/C4H7N4/c1-3-6-2-7-4(5)8-3/h2-3,5H,1H3,(H,6,7,8)/t3-/m0/s1
