17
gdb 1250	6.84496	1.16046	1.03874	3.0075	62.	-0.2546	-0.0261	0.2285	1116.4435	0.144496	-346.859384	-346.850546	-346.849601	-346.893533	29.819	
C	-0.0830786111	 1.552907264	 0.1988020559	-0.389183
C	 0.0003453804	 0.0445165032	-0.0015726148	 0.160732
C	 0.7871251624	-0.6461854092	 1.1151537797	-0.395091
O	-1.3461651433	-0.423618519	-0.0728475728	-0.259423
C	-1.5123682965	-1.7218550005	-0.5759296578	-0.15199
C	-2.9908088184	-1.9304594885	-0.860869741	 0.141941
O	-3.4648605124	-2.9838692323	-1.1931967888	-0.238901
H	 0.9172183665	 1.994934239	 0.2154815252	 0.11596
H	-0.6568453079	 2.0146979052	-0.6087860485	 0.122914
H	-0.5789620176	 1.7829698	 1.1470657031	 0.125722
H	 0.4917709737	-0.16568512	-0.9671770896	 0.06781
H	 0.3025810323	-0.4743316615	 2.0817040432	 0.125523
H	 0.8629553807	-1.7256089593	 0.9548279101	 0.118488
H	 1.8052962714	-0.2478605539	 1.1630215065	 0.119291
H	-0.9572217784	-1.8708215355	-1.5193251059	 0.117632
H	-1.1774568769	-2.5065776085	 0.1196815326	 0.123902
H	-3.5992935849	-1.0070250132	-0.7405315773	 0.094673
57.4158	60.3762	105.0659	156.3745	206.6884	252.6204	310.2009	359.5902	442.7758	465.3744	570.6426	742.0251	832.5782	927.8561	936.2565	947.8673	1046.3148	1114.1983	1128.4788	1159.5325	1176.2344	1201.1765	1239.0141	1339.4319	1367.7099	1385.3317	1397.9106	1412.7429	1417.7106	1480.1066	1480.6777	1487.7779	1496.1819	1512.0103	1844.4095	2898.9076	2953.8954	2956.8521	3005.2456	3038.6342	3044.6049	3110.7237	3112.8703	3119.0813	3124.7661
CC(C)OCC=O	CC(C)OCC=O	
InChI=1S/C5H10O2/c1-5(2)7-4-3-6/h3,5H,4H2,1-2H3	InChI=1S/C5H10O2/c1-5(2)7-4-3-6/h3,5H,4H2,1-2H3
