19
gdb 1795	3.56216	2.20307	1.76903	1.0119	68.09	-0.2429	0.0883	0.3312	829.7377	0.16933	-310.902849	-310.894284	-310.89334	-310.935097	31.251	
C	 0.1953682745	 1.2770861163	 0.2264353316	-0.244754
O	-0.2188953826	 0.0054682347	-0.22984733	-0.277574
C	 0.573062273	-0.5419429096	-1.2507092838	 0.438406
C	 0.4067708845	 0.1173945427	-2.6033065521	-0.453165
C	 1.9148147593	-1.1129080137	-0.8446165771	-0.352586
C	 0.7505073288	-2.0344737869	-1.1678567488	-0.049599
C	 0.0932881226	-2.850419045	-0.0777562565	-0.39994
H	 1.2458388939	 1.2704769967	 0.5506098405	 0.105676
H	 0.074446479	 2.0563695811	-0.5390772633	 0.107463
H	-0.4391294759	 1.5292109022	 1.0798109138	 0.123962
H	 0.755619682	 1.1558829461	-2.5980498113	 0.115424
H	 0.9816128774	-0.4169916061	-3.3648963475	 0.11628
H	-0.6468746547	 0.1139639012	-2.9020652478	 0.123099
H	 2.7498020847	-1.0461317275	-1.5343169221	 0.105097
H	 2.1858937296	-1.0255564801	 0.2026834036	 0.111261
H	 0.80802228	-2.5351798678	-2.1316788148	 0.079262
H	-0.0035923441	-2.2664515754	 0.8398022249	 0.126746
H	-0.9122847092	-3.1682998352	-0.3743519411	 0.115065
H	 0.6778148473	-3.7503818337	 0.1425377319	 0.109878
106.5327	166.1607	183.5055	191.817	217.1806	232.8671	297.7522	384.3483	418.1072	442.9116	571.6259	686.1223	785.0451	867.4926	903.7938	923.6517	955.1379	1018.9776	1035.394	1105.2575	1118.0592	1132.2439	1139.8691	1181.9393	1190.8674	1220.1857	1266.0992	1305.0611	1401.3204	1409.2582	1425.2833	1472.977	1479.0269	1481.5169	1491.1724	1495.0829	1502.0516	1507.9465	1513.4863	2990.9111	3031.1203	3033.4109	3042.4199	3089.3064	3094.0555	3111.3508	3112.5068	3120.2594	3125.1037	3137.9169	3211.8373
COC1(C)CC1C	CO[C@@]1(C)C[C@H]1C	
InChI=1S/C6H12O/c1-5-4-6(5,2)7-3/h5H,4H2,1-3H3	InChI=1S/C6H12O/c1-5-4-6(5,2)7-3/h5H,4H2,1-3H3/t5-,6+/m1/s1
