13
gdb 2746	4.62071	2.47341	1.64474	5.1696	58.79	-0.251	-0.0212	0.2298	720.2547	0.102495	-340.654517	-340.647928	-340.646984	-340.685339	22.936	
N	 0.0522750043	 1.3141469175	 0.0072715016	-0.410356
C	-0.0093865058	 0.0468974222	 0.0041729191	 0.070311
N	-1.2055760962	-0.6484076564	 0.0116039295	-0.092479
C	-1.4472103997	-2.101218879	 0.0095956458	-0.174486
C	-2.9687883786	-1.7961204156	 0.0225867143	-0.372066
C	-2.5718440006	-0.3052475275	 0.0234620302	 0.433777
O	-3.1452348897	 0.7409520687	 0.0309062554	-0.316023
H	 1.0254438405	 1.6152959668	 0.0003701003	 0.231023
H	 0.8469425936	-0.6408930159	-0.0046186471	 0.096159
H	-1.079947091	-2.6051465493	-0.889110843	 0.124571
H	-1.0656616319	-2.6099845538	 0.8995829744	 0.124571
H	-3.5209513594	-2.1082915867	-0.8652532249	 0.142497
H	-3.5066959755	-2.1131252912	 0.9174377343	 0.1425
104.8261	164.5792	184.6973	190.7244	467.0554	505.735	541.4981	752.0544	795.8335	805.233	823.9666	952.6593	1043.9439	1045.9234	1065.34	1098.7384	1155.4994	1194.9579	1203.4995	1255.3826	1291.4631	1396.9287	1424.9747	1460.811	1524.7944	1718.4622	1904.724	3026.2373	3050.1108	3092.1266	3097.5908	3149.0274	3500.9188
N=CN1CCC1=O	[NH][CH]N1CCC1=O	
InChI=1S/C4H6N2O/c5-3-6-2-1-4(6)7/h3,5H,1-2H2	InChI=1S/C4H6N2O/c5-3-6-2-1-4(6)7/h3,5H,1-2H2
