15
gdb 1394	6.62583	1.42684	1.22993	0.1459	68.84	-0.2592	0.0391	0.2983	942.8225	0.122016	-271.319942	-271.311759	-271.310815	-271.352034	29.706	
C	-0.0515676713	 1.578691978	-0.0314080522	-0.386294
C	-0.03353674	 0.0395643234	 0.0055515818	-0.156309
C	 0.764545978	-0.5037194217	 1.2286854058	-0.349507
C	 2.1705306294	-0.1220478108	 1.2062823429	 0.303368
C	 3.329337742	 0.1953921983	 1.1640440319	-0.446975
C	-1.3875556241	-0.5094006621	 0.0168506796	 0.321316
C	-2.5029078884	-0.9567893279	 0.0515960765	-0.462385
H	 0.9707580711	 1.9647421391	-0.0470162425	 0.133192
H	-0.5779396156	 1.9362557434	-0.9196919309	 0.126662
H	-0.5626336162	 1.9787645224	 0.8497822768	 0.124634
H	 0.4769543469	-0.3198216231	-0.8972227445	 0.118636
H	 0.2902543155	-0.1391575861	 2.1481178751	 0.138991
H	 0.6785535365	-1.5957532967	 1.2492513849	 0.14183
H	 4.3548639804	 0.4696110095	 1.1407152901	 0.1969
H	-3.4877998842	-1.3534208258	 0.0668752346	 0.195942
77.9821	125.9332	184.7907	221.2981	264.0536	332.0864	354.4543	492.4034	519.0376	534.8916	619.1241	629.2858	645.5715	648.5074	822.6851	891.3638	915.1527	978.5871	1064.4136	1094.9223	1132.3478	1239.7108	1290.3139	1335.0356	1361.0743	1408.3016	1470.4074	1495.7046	1498.8828	2234.365	2237.7887	3022.7283	3035.8057	3045.9875	3072.4045	3119.6856	3131.1909	3504.7555	3505.7828
CC(CC#C)C#C	C[C@@H](CC#C)C#C	
InChI=1S/C7H8/c1-4-6-7(3)5-2/h1-2,7H,6H2,3H3	InChI=1S/C7H8/c1-4-6-7(3)5-2/h1-2,7H,6H2,3H3/t7-/m1/s1
