13
gdb 3115	5.98584	2.20583	1.89961	4.8783	59.33	-0.2496	0.0061	0.2557	673.0374	0.103516	-303.464433	-303.458533	-303.457589	-303.494022	22.216	
N	 0.0438399945	-1.1411908627	-0.0376452832	-0.347239
C	 0.0367215153	 0.0151430198	 0.0058870145	 0.233947
C	 0.0256250181	 1.445592586	 0.0404061627	 0.229773
C	 0.2932215534	 2.2925646648	-1.1860242751	-0.313395
C	 1.184970632	 2.454486038	 0.0094685825	-0.121297
C	 0.4493944796	 3.2124074038	 1.114895911	-0.169852
N	-0.6321697418	 2.1780412817	 1.1252487763	-0.360766
H	 0.7336757228	 1.7673250903	-2.0268898874	 0.141738
H	-0.4254295677	 3.0649470424	-1.4506927378	 0.118204
H	 2.2441262539	 2.2396633151	-0.021869656	 0.124449
H	 0.977533865	 3.2314126866	 2.0720936166	 0.12805
H	 0.1327839634	 4.2298381893	 0.8587509234	 0.110107
H	-1.5555776484	 2.5236207348	 0.8757166124	 0.226283
163.4833	179.5397	330.8388	417.9879	512.7261	566.5394	600.006	715.8654	822.1892	852.1151	884.2287	953.5647	964.7048	1000.2886	1016.9918	1035.6072	1082.6617	1114.2826	1184.9179	1204.323	1280.5605	1327.1052	1354.2915	1377.3366	1475.4088	1511.9951	2349.1688	3036.7352	3090.5804	3111.2923	3210.7324	3220.394	3489.6255
N#CC12CC1CN2	N#C[C@]12C[C@H]1CN2	
InChI=1S/C5H6N2/c6-3-5-1-4(5)2-7-5/h4,7H,1-2H2	InChI=1S/C5H6N2/c6-3-5-1-4(5)2-7-5/h4,7H,1-2H2/t4-,5+/m0/s1
