15
gdb 2285	9.30716	1.3292	1.24484	4.0416	59.34	-0.2763	0.0101	0.2864	940.1857	0.124876	-345.667357	-345.660396	-345.659452	-345.69918	24.367	
O	-0.6308176434	 0.2156831545	-0.2683775219	-0.276039
C	-0.3276266489	 1.3646760591	-0.1521856967	 0.162631
O	 0.9288179391	 1.7662058287	 0.1146068705	-0.186996
C	 1.1946839437	 3.1597692363	 0.2357409543	 0.158806
C	 1.9412437667	 3.6026859523	 1.5119198701	-0.245165
C	 2.7834797286	 4.5563214904	 0.6171744651	-0.216479
C	 2.3594929274	 3.7079505047	-0.6156516042	-0.245179
H	-1.0361683647	 2.2112769795	-0.2498446888	 0.075929
H	 0.2688650896	 3.727118462	 0.0817678601	 0.087979
H	 1.3527530513	 4.0284473883	 2.3272574399	 0.105768
H	 2.5429956729	 2.7753799832	 1.8969130555	 0.125463
H	 2.3653325394	 5.5656032842	 0.5849366547	 0.110284
H	 3.8506668145	 4.6278495067	 0.8305025449	 0.111769
H	 3.0774229354	 2.9098965444	-0.8216924635	 0.125462
H	 2.1146095283	 4.2202183959	-1.5483819202	 0.105768
47.4978	119.7528	156.1184	278.1394	376.958	407.2115	557.4005	703.5046	782.5858	814.6308	915.1977	922.2045	945.0581	980.7395	1044.8483	1060.7889	1093.4552	1151.3428	1196.171	1198.3529	1246.8306	1255.1124	1255.9759	1279.0189	1293.7321	1386.3225	1443.9813	1473.668	1487.5481	1510.4985	1865.9911	2939.528	3033.8943	3067.1295	3069.6538	3073.6804	3118.1225	3124.5979	3137.0946
O=COC1CCC1	O=COC1CCC1	
InChI=1S/C5H8O2/c6-4-7-5-2-1-3-5/h4-5H,1-3H2	InChI=1S/C5H8O2/c6-4-7-5-2-1-3-5/h4-5H,1-3H2
