11
gdb 430	5.38555	4.06938	2.52801	1.2035	43.85	-0.2717	0.0123	0.284	494.7347	0.084855	-322.412936	-322.407158	-322.406214	-322.44232	19.922	
O	 0.1278538112	 1.3939611582	 0.1444662248	-0.42609
C	 0.0169599195	-0.0014075136	 0.0487529877	 0.009258
C	-1.4200170671	-0.5145129067	-0.1635076676	-0.094227
O	-1.017281234	-1.1252967853	-1.4355915398	-0.250024
C	 0.2534331517	-0.6084898458	-1.3261068483	 0.409697
N	 1.2275855252	-0.6043614344	-2.113515825	-0.54899
H	 0.9773030843	 1.6409104478	-0.2392471748	 0.302986
H	 0.5600278498	-0.5187186087	 0.851131999	 0.102692
H	-1.7923995398	-1.2681586454	 0.5323815175	 0.125227
H	-2.1509040598	 0.2806156015	-0.3222591168	 0.13592
H	 1.011930809	-1.0728677875	-2.9950019866	 0.233551
119.4575	161.1201	276.1636	385.0416	475.1097	674.7547	731.0296	849.1756	873.9683	928.5488	960.8963	1016.9903	1059.2394	1148.9117	1183.1606	1209.2047	1234.8569	1324.6374	1363.7129	1412.7491	1504.3242	1830.3985	3017.1078	3077.2029	3145.2485	3479.2335	3804.873
OC1COC1=N	O[C@H]1CO[C]1[NH]	
InChI=1S/C3H5NO2/c4-3-2(5)1-6-3/h2,4-5H,1H2	InChI=1S/C3H5NO2/c4-3-2(5)1-6-3/h2,4-5H,1H2/t2-/m0/s1
