10
gdb 4957	3.29098	2.62383	1.45989	4.982	50.81	-0.2657	-0.0822	0.1836	746.6396	0.060379	-454.458688	-454.452566	-454.451622	-454.489415	21.948	
O	-0.0305248186	 0.0794475074	 0.4902554177	-0.265059
C	-0.0231150753	 1.1935248007	 0.0724898441	 0.311564
O	-1.181117555	 1.7975596939	-0.3226640909	-0.19023
C	-1.1497181304	 3.0831570266	-0.8011555698	-0.019278
C	-0.0281867	 3.7823120533	-0.9008779812	-0.019279
O	 1.1940645756	 3.2782319028	-0.5338551282	-0.19023
C	 1.2832419364	 2.0079185791	-0.0436253992	 0.311564
O	 2.3342507188	 1.553697846	 0.2801281334	-0.265059
H	-2.1243726058	 3.4522011788	-1.0814258492	 0.163003
H	 0.0278246943	 4.7938632913	-1.2727961067	 0.163003
80.8158	175.7337	355.0018	462.0493	483.786	518.4308	540.2195	578.325	725.5233	778.4348	804.7835	868.5705	933.0545	1026.7401	1063.3373	1164.0593	1201.8026	1330.6755	1395.103	1734.0072	1870.4506	1887.7567	3252.2758	3272.1821
O=C1OC=COC1=O	O=c1occoc1=O	
InChI=1S/C4H2O4/c5-3-4(6)8-2-1-7-3/h1-2H	InChI=1S/C4H2O4/c5-3-4(6)8-2-1-7-3/h1-2H
