8
gdb 4220	6.47523	2.8137	1.9614	3.4819	42.6	-0.2799	-0.1078	0.1721	549.0085	0.042706	-395.515911	-395.511002	-395.510058	-395.544769	17.15	
F	 0.0022867784	 0.0447389837	 0.0031760778	-0.029676
C	-0.0252581168	 1.3580012768	 0.0107215219	 0.378969
C	-1.238343182	 2.0426587434	 0.0305577703	-0.077146
N	-1.21826934	 3.3621777893	 0.0374498045	-0.138235
N	-0.0361671957	 3.9876563209	 0.0251097722	-0.046843
N	 1.0896203193	 3.3253296028	 0.006508792	-0.04399
N	 1.1198205475	 1.9868887544	-0.0011423307	-0.212854
H	-2.2003432507	 1.5401864788	 0.0406112519	 0.169775
166.8582	352.2903	413.077	549.0995	576.8999	666.9481	824.3512	859.3357	953.8279	964.9581	1063.2636	1089.2127	1216.5441	1310.9579	1411.4046	1553.0048	1582.7672	3191.0737
FC1=CN=NN=N1	Fc1cnnnn1	
InChI=1S/C2HFN4/c3-2-1-4-6-7-5-2/h1H	InChI=1S/C2HFN4/c3-2-1-4-6-7-5-2/h1H
