14
gdb 4759	6.85317	1.31707	1.11273	3.8299	62.22	-0.1817	0.0435	0.2252	1015.3843	0.106156	-415.866103	-415.857875	-415.856931	-415.899336	28.715	
C	 0.0000412691	 1.3925144405	 0.0226715439	-0.316836
N	 0.0087043354	-0.0596794181	-0.0311821451	-0.385378
C	-1.1044394769	-0.6535125403	-0.0306396052	 0.529011
N	-1.3033357516	-2.025741734	-0.0751276057	-0.415648
C	-2.6585889282	-2.2920297893	 0.0054895455	 0.38113
O	-3.0414232618	-3.5832180528	 0.0090971421	-0.422291
C	-3.3065864767	-1.1195497556	 0.0491784544	-0.213115
O	-2.3589850313	-0.0874772959	 0.014538935	-0.224657
H	 1.0214954755	 1.7476304496	 0.1830279362	 0.113643
H	-0.364109587	 1.8379439858	-0.9143262205	 0.112102
H	-0.6302226229	 1.7865436908	 0.832579837	 0.110726
H	-0.5597869204	-2.6946654227	 0.0156108838	 0.279578
H	-4.0011395533	-3.6272991786	 0.073669194	 0.31507
H	-4.34318336	-0.8406318294	 0.0771793747	 0.136665
42.3834	86.9771	192.4483	229.156	270.5695	286.252	361.6815	363.903	537.47	571.9715	630.0116	671.6012	728.2277	738.9259	899.0542	1025.8791	1073.0951	1086.9872	1124.342	1146.5458	1173.5756	1225.0722	1297.834	1362.9197	1447.9929	1491.7008	1501.2252	1516.7092	1734.3942	1814.87	2988.5494	3033.1582	3095.3181	3309.2136	3701.3093	3835.6356
CN=C1NC(O)=CO1	CN=c1[nH]c(O)co1	
InChI=1S/C4H6N2O2/c1-5-4-6-3(7)2-8-4/h2,7H,1H3,(H,5,6)	InChI=1S/C4H6N2O2/c1-5-4-6-3(7)2-8-4/h2,7H,1H3,(H,5,6)
