14
gdb 2669	18.25553	0.83075	0.80647	5.4547	72.16	-0.2828	-0.0362	0.2467	1352.4832	0.112825	-287.440436	-287.432572	-287.431627	-287.47289	26.663	
C	-0.024715441	 1.5625902087	 0.0204461134	-0.38414
C	-0.0027586659	 0.0333481662	 0.0103028091	-0.164096
C	 0.7099823353	-0.5252890564	-1.2417818379	-0.357455
C	 0.7457485686	-1.9768552265	-1.2783284964	 0.059485
C	 0.7631139357	-3.1853793924	-1.2866153115	 0.075018
C	 0.7848531785	-4.5500054872	-1.2997363026	 0.205213
N	 0.8031670314	-5.711759412	-1.3107998182	-0.339558
H	 0.9897638956	 1.9757873759	 0.015322308	 0.122012
H	-0.550559863	 1.9594504602	-0.8547239358	 0.122008
H	-0.5328366857	 1.9383306555	 0.9129510657	 0.124692
H	 0.504723197	-0.3451917147	 0.9039153315	 0.120913
H	-1.0238366289	-0.3614048104	 0.0409695047	 0.120914
H	 0.2093837579	-0.1579195414	-2.1475981398	 0.147498
H	 1.7382182147	-0.1418733455	-1.2844911702	 0.147498
72.2496	79.0677	164.3204	215.4734	233.3291	321.9415	371.8652	472.6012	578.0714	580.6453	731.6425	742.9215	870.7709	891.3078	1040.3417	1104.3084	1121.0628	1173.7332	1257.2763	1307.3576	1324.4165	1380.3145	1414.1711	1463.0637	1491.2979	1497.4656	1507.403	2265.087	2401.3947	3017.6772	3033.7426	3048.3821	3048.8502	3081.4473	3106.648	3112.6188
CCCC#CC#N	CCCC#CC#N	
InChI=1S/C6H7N/c1-2-3-4-5-6-7/h2-3H2,1H3	InChI=1S/C6H7N/c1-2-3-4-5-6-7/h2-3H2,1H3
