15
gdb 2661	11.03888	0.85556	0.8442	2.8337	67.14	-0.2457	-0.0266	0.219	1343.845	0.122262	-308.506421	-308.497822	-308.496878	-308.542563	28.031	
C	 0.0129242333	 1.4502824123	-0.4560173183	-0.365297
C	-0.0030790376	 0.1279318396	 0.3322558851	-0.313193
C	-1.332277007	-0.4663849242	 0.430429979	 0.093307
C	-2.4429495878	-0.9255195008	 0.5117631728	 0.020749
C	-3.7599167373	-1.5421673771	 0.5807825204	-0.411111
C	-3.8434626678	-2.8254402848	-0.2485612698	 0.172343
O	-4.4543886164	-3.8014475892	 0.0915363154	-0.231715
H	 1.0287141507	 1.8536963313	-0.5022672334	 0.116784
H	-0.3443248457	 1.2980277004	-1.4780843912	 0.128051
H	-0.6322427054	 2.1939159788	 0.0194783149	 0.12926
H	 0.6800412882	-0.5896777643	-0.1399324024	 0.131774
H	 0.3918624102	 0.2970233687	 1.3421729617	 0.13261
H	-4.0610319624	-1.778844767	 1.6066555243	 0.152423
H	-4.5221390301	-0.857899878	 0.1760164855	 0.152553
H	-3.2953693251	-2.7787242357	-1.214809734	 0.091461
5.3387	51.8039	114.0878	128.0745	210.8107	285.2113	333.9497	454.1391	480.5518	516.8955	701.8619	784.5127	785.9664	966.3079	1034.2837	1042.6087	1079.4972	1104.1868	1164.6292	1212.4313	1285.3919	1292.0672	1351.7114	1409.1374	1414.5288	1441.5118	1474.3809	1494.5476	1505.1956	1840.7855	2367.9798	2898.4551	2997.2054	3022.0092	3045.2824	3049.3001	3076.8788	3118.9298	3124.25
CCC#CCC=O	CCC#CCC=O	
InChI=1S/C6H8O/c1-2-3-4-5-6-7/h6H,2,5H2,1H3	InChI=1S/C6H8O/c1-2-3-4-5-6-7/h6H,2,5H2,1H3
