16
gdb 1280	8.17317	1.17164	1.04506	2.462	57.94	-0.264	0.0595	0.3235	1106.8366	0.135959	-362.967171	-362.95874	-362.957795	-363.000762	28.9	
C	-0.0581644673	 1.4771960206	 0.0563797388	-0.383227
C	 0.0346812357	-0.0486411964	-0.0303610638	-0.189659
C	 0.7500693194	-0.5014247284	-1.2929354801	-0.03212
O	 0.7872317965	-1.9376785328	-1.28393095	-0.261943
C	 1.4005052044	-2.5042063578	-2.3510869554	 0.489756
N	 1.4238460471	-3.8647970349	-2.2051308128	-0.562905
O	 1.882037638	-1.8930985174	-3.2760965072	-0.397873
H	 0.9357822251	 1.937480767	 0.0642830405	 0.120883
H	-0.6085755029	 1.8925723074	-0.7947533263	 0.120306
H	-0.5748781965	 1.7863600378	 0.9692217552	 0.118819
H	 0.5674613639	-0.4460687071	 0.8412320139	 0.107626
H	-0.9683029766	-0.49070943	-0.0125095074	 0.105574
H	 0.2325287742	-0.158765983	-2.1956593361	 0.116907
H	 1.7738600119	-0.1143292038	-1.337959668	 0.118368
H	 0.8054706567	-4.2877245905	-1.5339133545	 0.262396
H	 1.6526824204	-4.3917004305	-3.0302645067	 0.267093
40.9803	78.5917	136.7907	179.3198	233.3455	320.1475	344.6425	357.8519	489.8638	536.5838	665.796	759.5843	786.0065	891.9062	915.5116	926.491	1050.3387	1093.2194	1118.115	1150.7324	1191.4564	1269.6362	1311.5613	1324.042	1360.4858	1414.1378	1432.6091	1492.3528	1500.6032	1506.45	1523.8462	1612.1702	1833.3593	3033.5779	3033.7185	3043.3687	3062.4807	3086.3639	3104.4831	3110.7624	3613.2145	3742.4258
CCCOC(N)=O	CCCOC(=O)N	
InChI=1S/C4H9NO2/c1-2-3-7-4(5)6/h2-3H2,1H3,(H2,5,6)	InChI=1S/C4H9NO2/c1-2-3-7-4(5)6/h2-3H2,1H3,(H2,5,6)
