13
gdb 4438	3.52234	1.93658	1.26798	4.6292	56.85	-0.2336	0.0184	0.252	895.8657	0.095263	-435.792697	-435.785333	-435.784389	-435.824246	26.628	
C	 0.1653807205	 1.5235249659	 0.0431205806	-0.49291
C	-0.0245678884	 0.0576582121	-0.011923738	 0.330783
C	-1.1013965801	-0.7252675663	 0.0538126724	 0.154889
N	-2.4461191789	-0.4263344863	 0.2003443804	-0.594615
O	-0.6753986227	-2.0646938873	-0.0552350897	-0.233629
C	 0.6788460971	-2.0516915853	-0.1868366718	 0.491125
O	 1.3861903468	-3.0006013586	-0.3037511358	-0.375046
O	 1.0963926483	-0.7467697447	-0.1619247355	-0.248337
H	 0.8088680567	 1.8064493619	 0.8832709605	 0.148212
H	 0.6372787995	 1.8946051057	-0.8731739294	 0.148218
H	-0.806153597	 2.006135555	 0.1622653488	 0.156563
H	-3.0027861638	-0.7416982549	-0.5883244043	 0.257373
H	-2.8428726778	-0.8237879972	 1.0464829317	 0.257375
151.5622	165.2175	210.6711	249.8897	250.6927	338.4807	373.6074	596.651	619.0933	633.8238	658.6294	781.2606	785.5247	830.748	942.3796	959.0525	1031.7478	1071.906	1198.0641	1221.1607	1278.7313	1333.4882	1422.6266	1473.5354	1488.2938	1656.9959	1821.447	1938.2069	3037.9682	3091.3258	3145.3734	3496.2165	3561.4419
CC1=C(N)OC(=O)O1	Cc1c(N)oc(=O)o1	
InChI=1S/C4H5NO3/c1-2-3(5)8-4(6)7-2/h5H2,1H3	InChI=1S/C4H5NO3/c1-2-3(5)8-4(6)7-2/h5H2,1H3
