16
gdb 2830	4.78865	1.70138	1.40041	4.1956	65.53	-0.2857	0.0316	0.3173	886.0648	0.136913	-288.652346	-288.644864	-288.64392	-288.68409	26.888	
C	-0.027473354	 1.5147172647	-0.2227040618	-0.378325
C	-0.034410543	 0.0603831861	 0.2615924671	-0.203048
C	-1.406448328	-0.5721204881	 0.1638102636	 0.017059
C	-1.8801427405	-1.2024321291	-1.1108562391	-0.281545
C	-1.5823517384	-2.0861102344	 0.0941527979	-0.1852
C	-0.434810047	-2.9484909223	 0.0742444776	 0.286286
N	 0.4904298721	-3.6438011485	 0.0628858218	-0.344268
H	 0.9721893993	 1.9503011946	-0.1364310431	 0.120514
H	-0.3364601225	 1.5845208786	-1.2708087153	 0.120331
H	-0.7125963367	 2.1333614412	 0.3672330028	 0.116433
H	 0.6815331947	-0.5305972187	-0.3206651013	 0.120624
H	 0.3097022094	 0.0142694723	 1.3021136201	 0.111521
H	-2.1726348999	-0.0795725823	 0.7576464368	 0.099877
H	-2.9196240063	-1.1083425981	-1.4028129559	 0.128557
H	-1.1796931881	-1.2571546665	-1.9369534531	 0.138881
H	-2.4338100612	-2.5060505895	 0.6187727019	 0.1323
87.1236	114.9655	194.3727	235.5243	257.1901	374.1222	410.4187	556.6924	628.0611	761.1705	782.1971	799.0073	855.9536	937.5579	954.9291	986.711	1050.1666	1078.2442	1103.7129	1127.0441	1144.8469	1199.1965	1231.392	1298.1735	1345.417	1377.6248	1412.9047	1425.2557	1481.7811	1493.9572	1499.5565	1508.2941	2350.1706	3032.3932	3035.1301	3068.2298	3102.6612	3110.9998	3140.1989	3142.4734	3170.1841	3231.9468
CCC1CC1C#N	CC[C@H]1C[C@H]1C#N	
InChI=1S/C6H9N/c1-2-5-3-6(5)4-7/h5-6H,2-3H2,1H3	InChI=1S/C6H9N/c1-2-5-3-6(5)4-7/h5-6H,2-3H2,1H3/t5-,6-/m0/s1
