12
gdb 402	6.03973	3.14206	2.43199	1.7508	52.23	-0.2616	0.0263	0.2879	548.2216	0.094019	-269.176124	-269.169791	-269.168847	-269.205558	22.957	
C	-0.020810039	 1.5071427232	 0.0165191375	-0.465353
C	-0.0184946359	-0.0053394634	-0.0593729976	 0.231184
C	 0.7668072841	-0.7031443922	-1.099398464	-0.207003
O	 1.2426258141	-0.6343748545	 0.2404629508	-0.256479
C	-1.1810923412	-0.6630847764	 0.4934624952	 0.297739
C	-2.1648703905	-1.17240021	 0.9596341641	-0.44279
H	 0.899642978	 1.9049917025	-0.4174405809	 0.129435
H	-0.8788884835	 1.9173719824	-0.5241481888	 0.133324
H	-0.0869749002	 1.8341912951	 1.0581119002	 0.139699
H	 0.451034535	-1.6883262716	-1.4370071062	 0.123246
H	 1.3171983286	-0.1077872794	-1.8275722046	 0.116179
H	-3.0277638094	-1.6351510156	 1.3710732642	 0.200817
171.0502	190.6185	226.3289	354.9523	369.3047	540.0733	557.1986	623.9917	662.9509	671.9896	812.3639	905.5119	928.2946	1032.0024	1099.0093	1137.4151	1166.5107	1258.5378	1364.3381	1410.3213	1478.6867	1493.6212	1520.3664	2239.5242	3045.8531	3081.7762	3118.1323	3131.0479	3175.5556	3502.3723
CC1(CO1)C#C	C[C@]1(CO1)C#C	
InChI=1S/C5H6O/c1-3-5(2)4-6-5/h1H,4H2,2H3	InChI=1S/C5H6O/c1-3-5(2)4-6-5/h1H,4H2,2H3/t5-/m1/s1
