15
gdb 4344	3.81693	1.96229	1.30714	0.8568	71.33	-0.2222	-0.0232	0.199	905.5643	0.121069	-358.922593	-358.915277	-358.914333	-358.954552	27.156	
C	 0.0023964343	 1.4923240001	 0.0363371419	-0.469989
C	-0.015623273	-0.0112597306	-0.0137567195	 0.328236
C	-0.0963707027	-0.7127003414	-1.2179500338	-0.196785
C	-0.0937032953	-2.1000936122	-1.1332166638	 0.015329
N	-0.0293134854	-2.7613690157	 0.0183723743	-0.316522
C	 0.0315374992	-1.9886467094	 1.1185705344	 0.422514
N	 0.0469798849	-2.6388117523	 2.3192433601	-0.553252
N	 0.0509683957	-0.6478954659	 1.1586391266	-0.358027
H	 0.8980007773	 1.8412291396	 0.5597133866	 0.141682
H	-0.0187568894	 1.9316216874	-0.9634267013	 0.120242
H	-0.8598065884	 1.8601780559	 0.6019627807	 0.14338
H	-0.148277199	-0.203019037	-2.1715048342	 0.09327
H	-0.1425903828	-2.7109792333	-2.0329922141	 0.109134
H	 0.2715176303	-3.6191223531	 2.3004394784	 0.260872
H	 0.3284182442	-2.1025771419	 3.1223181038	 0.259916
44.7388	181.7358	208.8108	300.2294	381.3351	441.7528	456.8927	517.2104	545.4116	606.2209	643.103	773.5631	822.7483	828.1376	951.2042	1002.9825	1008.3465	1020.8765	1058.6812	1093.1383	1151.8489	1269.2807	1286.8479	1371.4903	1404.7121	1470.8368	1474.9295	1487.6994	1492.9594	1603.4159	1618.0521	1641.0815	3043.1518	3104.3301	3130.7782	3143.4344	3210.0515	3610.5432	3740.7174
CC1=CC=NC(N)=N1	Cc1ccnc(N)n1	
InChI=1S/C5H7N3/c1-4-2-3-7-5(6)8-4/h2-3H,1H3,(H2,6,7,8)	InChI=1S/C5H7N3/c1-4-2-3-7-5(6)8-4/h2-3H,1H3,(H2,6,7,8)
