21
gdb 4030	2.56602	1.59161	1.10228	0.5175	77.58	-0.2402	0.0158	0.256	1158.5713	0.186407	-366.237293	-366.227364	-366.22642	-366.271513	36.564	
C	 0.1168288414	 1.5195242811	-0.2572771429	-0.377199
C	-0.0067522661	 0.023302835	 0.0881004417	-0.263423
C	-1.4222111636	-0.5052487714	 0.0085347744	 0.357446
N	-2.036572906	-0.7324266207	-1.0893385061	-0.175986
O	-1.2469652374	-0.4240722785	-2.2150503901	-0.404837
C	-2.1668990914	-0.8208219334	 1.2932280809	-0.04615
C	-2.3669773417	 0.4505313847	 2.1432013461	-0.38752
C	-3.4993461385	-1.5433026156	 1.071145727	-0.380618
H	 1.1619742904	 1.8383817806	-0.1955611808	 0.111543
H	-0.2410209114	 1.7063027366	-1.2713465828	 0.142423
H	-0.464516219	 2.1402035062	 0.4308475757	 0.116912
H	 0.6074496864	-0.5502301573	-0.6141813665	 0.125985
H	 0.3886662881	-0.1598319591	 1.0927098072	 0.094784
H	-1.8301313833	-0.6720307025	-2.9396254896	 0.303353
H	-1.5058190229	-1.489083686	 1.8667771958	 0.083666
H	-3.0201805399	 1.161261067	 1.6257912421	 0.122508
H	-2.8353255713	 0.1958011008	 3.0991608732	 0.114863
H	-1.421628266	 0.9554572508	 2.3609724347	 0.118033
H	-3.3641043062	-2.4632962809	 0.4978111357	 0.120141
H	-3.9522625097	-1.7958596734	 2.0353502842	 0.099509
H	-4.2002876019	-0.9132014038	 0.5165837898	 0.124566
63.4684	125.0773	186.0632	207.7484	225.4198	232.4912	267.2006	277.8005	320.9348	354.6062	384.8583	439.5912	468.4172	599.5655	651.2932	763.2429	805.9388	880.0938	930.9197	969.4364	970.1551	980.6984	1061.168	1079.692	1124.7909	1137.1563	1170.1	1227.6455	1290.27	1328.0363	1351.1109	1363.3992	1397.6233	1401.9741	1405.0937	1422.9514	1479.2606	1483.9275	1488.1372	1497.4686	1502.578	1509.6128	1515.4499	1722.2904	2983.8727	3034.5093	3040.9449	3042.8031	3045.6729	3082.4264	3103.2834	3109.342	3111.7376	3112.7162	3125.3519	3140.7574	3824.9238
CCC(=NO)C(C)C	CCC(=NO)C(C)C	
InChI=1S/C6H13NO/c1-4-6(7-8)5(2)3/h5,8H,4H2,1-3H3	InChI=1S/C6H13NO/c1-4-6(7-8)5(2)3/h5,8H,4H2,1-3H3
