16
gdb 433	4.44325	3.84688	2.49161	1.3078	56.23	-0.2522	0.0751	0.3274	575.9494	0.142966	-271.622539	-271.615882	-271.614937	-271.652386	24.662	
C	-0.1200689384	 1.5256290286	 0.03503074	-0.381717
C	-0.0025929516	 0.0036394976	 0.0207245062	-0.003027
C	 1.1539046228	-0.5369500124	-0.8755456944	-0.222655
C	 2.0440281916	-0.6660470295	 0.391998035	-0.257707
C	 0.7477621131	-0.593538399	 1.2430391826	 0.150412
O	 0.7219038087	 0.2127624872	 2.3983670518	-0.430064
H	 0.8508159045	 2.0061473736	 0.1906018557	 0.11602
H	-0.5240492706	 1.8831612865	-0.918225182	 0.105203
H	-0.7822267103	 1.8609783087	 0.8379762496	 0.12506
H	-0.9867436877	-0.4365066433	-0.1663977496	 0.064325
H	 0.9204722852	-1.5075964942	-1.3209029371	 0.098118
H	 1.509524113	 0.1295041793	-1.6652045733	 0.097571
H	 2.6746906538	-1.5532841768	 0.491729277	 0.088647
H	 2.6567244196	 0.2250781103	 0.5532806166	 0.107002
H	 0.3747964616	-1.6052331688	 1.4619647751	 0.060987
H	 1.2415137447	-0.2211360378	 3.0821871069	 0.281824
135.0156	219.4872	231.7612	241.7527	352.7387	397.2502	536.9578	651.712	763.7869	806.7073	884.1814	910.5619	946.7044	955.3778	1016.6054	1070.4927	1113.2258	1159.2449	1172.5448	1196.708	1231.7144	1256.4539	1264.1501	1284.5771	1333.8352	1366.569	1406.9204	1425.4008	1480.1438	1494.2543	1498.3414	1502.2352	2982.0743	3035.8672	3049.6806	3056.3223	3064.6761	3101.8227	3102.9718	3114.0885	3120.4991	3819.5749
CC1CCC1O	C[C@H]1CC[C@H]1O	
InChI=1S/C5H10O/c1-4-2-3-5(4)6/h4-6H,2-3H2,1H3	InChI=1S/C5H10O/c1-4-2-3-5(4)6/h4-6H,2-3H2,1H3/t4-,5+/m0/s1
