16
gdb 4820	7.03696	1.29134	1.10631	2.8399	68.74	-0.1917	0.0328	0.2245	1065.7767	0.131312	-379.948782	-379.940768	-379.939824	-379.981531	28.141	
C	 0.002834624	 1.4088007025	 0.0435945086	-0.231184
O	 0.0469269172	-0.0114654777	-0.0223346802	-0.274449
C	 0.6364591751	-0.6283259929	 1.0209386277	 0.380425
C	 0.78518526	-1.9890841872	 1.1578387508	-0.259825
N	 1.4384727506	-2.1490316508	 2.3689083295	 0.024499
C	 1.8296041052	-3.4048348674	 2.9714160802	-0.335003
C	 1.6392783025	-0.9085059577	 2.8760740096	 0.00049
N	 1.166304563	 0.0388639898	 2.0864592581	-0.363556
H	 1.0094762973	 1.837341506	 0.0901418111	 0.128086
H	-0.4994875902	 1.7330887088	-0.8695467461	 0.120444
H	-0.5569373748	 1.7501332728	 0.9207288111	 0.127972
H	 0.5011090097	-2.8205123265	 0.5374235439	 0.124296
H	 2.5243155933	-3.9494637278	 2.3240834349	 0.144157
H	 2.3250844542	-3.202109962	 3.9228780869	 0.143864
H	 0.9560577758	-4.0371722684	 3.1594697005	 0.144144
H	 2.134430057	-0.7516406516	 3.8229850132	 0.125639
71.1927	108.5883	153.5181	189.4554	217.2586	337.5187	352.1841	499.3094	634.8652	640.9016	646.1382	729.5799	747.7229	787.5726	986.6078	1053.7341	1078.4127	1087.0898	1152.2103	1181.1109	1198.8972	1211.1239	1258.6045	1336.4047	1401.1992	1425.3579	1455.3419	1479.2015	1480.1194	1481.2149	1503.4759	1522.7935	1547.5649	1620.664	3029.581	3037.1593	3094.1019	3096.3489	3135.7945	3135.9041	3245.9483	3287.3639
COC1=CN(C)C=N1	COc1cn(C)cn1	
InChI=1S/C5H8N2O/c1-7-3-5(8-2)6-4-7/h3-4H,1-2H3	InChI=1S/C5H8N2O/c1-7-3-5(8-2)6-4-7/h3-4H,1-2H3
