15
gdb 2594	2.92428	2.82991	1.71115	1.3442	63.4	-0.2512	0.0419	0.2931	758.8998	0.123562	-308.46607	-308.458518	-308.457574	-308.497475	27.969	
O	 0.1341803072	 1.3156948645	-0.354733553	-0.415696
C	-0.00187669	 0.0004777359	 0.1437618199	-0.123041
C	-1.4299313183	-0.525283927	 0.0452097021	 0.145357
C	-1.8827169573	-1.136831512	-1.2700830736	-0.283388
C	-1.636496861	-2.0258244088	-0.0860108106	-0.298828
C	-2.3793989286	 0.2449172125	 0.803522518	 0.260337
C	-3.1251631036	 0.9399054911	 1.444430502	-0.471942
H	-0.4886503479	 1.8685465142	 0.1316925629	 0.287636
H	 0.657322385	-0.6285759143	-0.4633763976	 0.103571
H	 0.336683242	-0.0703431586	 1.1892450901	 0.094979
H	-2.9073253872	-0.9633299188	-1.5759523863	 0.128196
H	-1.1607052883	-1.1351748716	-2.0791681862	 0.127218
H	-0.7456778134	-2.6453634918	-0.0790412911	 0.120744
H	-2.4904974233	-2.4577818482	 0.4215782371	 0.127945
H	-3.8022504453	 1.5309164329	 2.0100107662	 0.196912
89.5711	150.3685	204.1962	244.9395	316.8267	373.887	434.5105	539.266	566.5683	589.2319	660.7728	700.6949	785.1107	875.194	927.1071	945.3482	963.6771	1036.9022	1060.7371	1081.3944	1089.2536	1191.3537	1197.7615	1284.2949	1342.9773	1377.2179	1427.9367	1466.2769	1492.9698	1506.2371	2226.5957	2982.8539	3074.7185	3136.9169	3142.2009	3222.5201	3236.9318	3501.5444	3790.6387
OCC1(CC1)C#C	OCC1(CC1)C#C	
InChI=1S/C6H8O/c1-2-6(5-7)3-4-6/h1,7H,3-5H2	InChI=1S/C6H8O/c1-2-6(5-7)3-4-6/h1,7H,3-5H2
