16
gdb 2892	6.2946	1.78315	1.48947	4.2811	64.39	-0.3087	0.0392	0.3479	818.195	0.139266	-288.67829	-288.671443	-288.670499	-288.710744	24.464	
N	-0.4346886852	-0.9686195599	-0.8084681513	-0.327307
C	-0.2347438021	 0.0805036426	-0.3656767536	 0.25738
C	 0.0262467568	 1.3982205115	 0.2031388473	-0.125058
C	-0.3701945429	 1.5375567872	 1.6906549221	-0.202637
C	 0.3242801304	 2.8456924974	 2.1018143173	-0.213031
C	 1.6618902081	 2.8675283511	 1.311626814	-0.210189
C	 1.5259974937	 1.7970200536	 0.1940081078	-0.20885
H	-0.545294153	 2.1312397829	-0.3802811971	 0.122062
H	-1.4525169739	 1.5491042106	 1.8390549557	 0.115199
H	 0.0336622972	 0.6870053631	 2.2507876461	 0.1196
H	-0.2995519199	 3.6978807749	 1.8106749639	 0.106193
H	 0.4712334261	 2.9144887316	 3.1823604651	 0.106926
H	 1.854641644	 3.8592609382	 0.894469361	 0.108304
H	 2.5093245586	 2.6313816114	 1.9603583818	 0.111538
H	 2.1296927622	 0.9152288604	 0.4264673819	 0.123517
H	 1.84394391	 2.1543107133	-0.7877756619	 0.116352
14.6813	143.6806	165.5085	295.1931	486.2312	538.567	545.7447	619.8984	771.9158	818.5051	867.8767	894.7725	951.5857	968.6168	990.6616	1017.9166	1062.1541	1080.1334	1189.5384	1203.5575	1220.2477	1273.2832	1291.2555	1309.9475	1323.1292	1331.4151	1344.6886	1376.7295	1488.4093	1495.3219	1497.5688	1519.0175	2356.3427	3028.9282	3043.6758	3052.2749	3059.9265	3069.167	3088.9975	3103.3831	3110.1602	3120.0293
N#CC1CCCC1	N#CC1CCCC1	
InChI=1S/C6H9N/c7-5-6-3-1-2-4-6/h6H,1-4H2	InChI=1S/C6H9N/c7-5-6-3-1-2-4-6/h6H,1-4H2
