14
gdb 4885	4.97711	1.50304	1.19104	4.5427	61.95	-0.1974	0.0388	0.2362	970.2559	0.107616	-415.863681	-415.856266	-415.855322	-415.895694	26.871	
C	-0.1357886083	 1.4386729272	 0.113143019	-0.339589
N	-0.112845188	 0.062900068	-0.3932671916	-0.391952
C	-1.1870806656	-0.7474716863	-0.1158869433	 0.376406
C	-1.3404999556	-2.0104953647	 0.2903551523	-0.178768
O	-2.7049903043	-2.3236198132	 0.2448874229	-0.222574
C	-3.3579244884	-1.1911410584	-0.1416621246	 0.505913
N	-4.5921265809	-0.996534494	-0.2780121684	-0.582386
O	-2.4315263302	-0.2117437904	-0.3843478853	-0.214995
H	 0.7215672622	 1.9743093701	-0.2994372976	 0.133026
H	-1.0466915648	 1.9291025031	-0.2329491962	 0.167206
H	-0.101535972	 1.4984541819	 1.2104586576	 0.120651
H	 0.7637515186	-0.4110986402	-0.2261100036	 0.247999
H	-0.6634689772	-2.7845796859	 0.5986358082	 0.145064
H	-5.1098264655	-1.8403263372	-0.0467402194	 0.234
82.0587	137.2624	172.8923	208.543	343.9882	402.4551	520.0601	597.4976	613.6915	655.7282	692.0501	733.1048	767.0118	777.2725	928.6333	987.0379	1015.316	1060.3753	1095.2934	1148.9863	1161.3344	1208.2882	1325.2623	1374.0711	1458.8562	1476.1758	1493.6505	1517.1068	1750.1316	1817.4641	3001.7267	3105.74	3150.5936	3316.4795	3546.1635	3595.5881
CNC1=COC(=N)O1	CNC1=CO[C@H]([NH])O1	
InChI=1S/C4H6N2O2/c1-6-3-2-7-4(5)8-3/h2,5-6H,1H3	InChI=1S/C4H7N2O2/c1-6-3-2-7-4(5)8-3/h2,4-6H,1H3/t4-/m0/s1
