18
gdb 1521	7.45443	1.25944	1.10695	1.2804	65.95	-0.2566	0.039	0.2956	1103.4198	0.158861	-326.998454	-326.98982	-326.988876	-327.031941	30.074	
C	 0.0657013933	 1.5332928872	-0.1421195398	-0.389156
C	-0.0057534408	 0.0250314117	 0.0090851825	-0.025762
O	 0.6420207853	-0.5539430258	-1.1330926217	-0.247813
C	 0.6882980662	-1.9002225689	-1.1910654046	 0.402842
N	 0.1798987763	-2.6167944655	-0.2740460088	-0.53109
C	 1.404314076	-2.3271542566	-2.456732554	-0.258331
C	 1.5260446042	-3.8373031117	-2.6462389065	-0.401061
H	 1.104540499	 1.8731202016	-0.1862038167	 0.124914
H	-0.4399612562	 1.8590692284	-1.0557872344	 0.124923
H	-0.4191530807	 2.0169105796	 0.7112254951	 0.118565
H	 0.4950974593	-0.321126845	 0.9194132138	 0.116779
H	-1.0390374411	-0.3348659445	 0.0562958764	 0.116704
H	 0.3043692056	-3.6054929315	-0.4774012339	 0.220012
H	 0.8756738748	-1.8729698958	-3.3033350362	 0.126867
H	 2.3952714788	-1.8576735104	-2.4488234596	 0.126862
H	 2.0870604503	-4.3000925345	-1.8279289533	 0.127129
H	 0.5425288707	-4.3155852746	-2.6962341863	 0.127133
H	 2.0519698489	-4.0635738037	-3.5777710122	 0.120485
51.3631	88.7729	131.2693	161.4297	246.5428	260.1968	304.0951	368.8533	451.9316	557.9575	632.1528	798.6106	809.5395	862.0376	874.0356	894.6727	1017.9328	1045.1886	1097.3269	1111.3953	1122.6856	1138.5623	1184.203	1281.6566	1287.5281	1309.7871	1379.0896	1408.5787	1412.0551	1440.2494	1468.0683	1485.6951	1496.7731	1500.9638	1508.7276	1521.9667	1721.5633	3037.5513	3039.9273	3043.8861	3045.645	3066.2658	3080.6886	3107.998	3114.5479	3118.039	3121.5456	3522.2014
CCOC(=N)CC	CCO[C]([NH])CC	
InChI=1S/C5H11NO/c1-3-5(6)7-4-2/h6H,3-4H2,1-2H3	InChI=1S/C5H11NO/c1-3-5(6)7-4-2/h6H,3-4H2,1-2H3
