12
gdb 450	7.26973	3.57574	2.54917	4.3159	45.82	-0.2646	0.0149	0.2795	499.82	0.098309	-306.418503	-306.413341	-306.412397	-306.447148	18.482	
O	 0.0300203807	 0.0037306063	 0.2327963542	-0.332122
C	-0.040398522	 1.1952585661	 0.1652578218	 0.432986
C	-1.2855027236	 2.0730054141	 0.0609791547	-0.349018
C	-0.7721783547	 3.468370339	 0.4263823398	-0.231269
C	 0.7074092524	 3.3753201703	 0.0183522264	-0.073189
O	 1.0660977807	 1.9919767505	 0.1639476877	-0.213918
H	-1.6447351902	 2.022888084	-0.9735996081	 0.140456
H	-2.0767303607	 1.6847646604	 0.7028833956	 0.141735
H	-1.291596391	 4.2822939313	-0.0827656077	 0.116822
H	-0.8553206565	 3.6354912028	 1.5043808849	 0.123651
H	 0.8635905404	 3.6686940279	-1.0269486057	 0.116949
H	 1.3775466646	 3.9626867674	 0.6492726764	 0.126916
148.3799	203.1065	487.722	536.7388	640.314	684.9347	803.6383	875.7752	893.212	936.7686	1010.2543	1065.2653	1096.085	1165.7779	1197.6341	1215.6772	1258.091	1302.7896	1341.8565	1400.9876	1465.2201	1498.083	1525.8638	1886.8161	3033.5192	3052.946	3063.7762	3107.5498	3120.143	3133.5854
O=C1CCCO1	O=C1CCCO1	
InChI=1S/C4H6O2/c5-4-2-1-3-6-4/h1-3H2	InChI=1S/C4H6O2/c5-4-2-1-3-6-4/h1-3H2
