19
gdb 1338	4.87395	1.56612	1.4352	1.2841	68.11	-0.2454	0.079	0.3244	942.9933	0.169716	-310.912131	-310.903647	-310.902703	-310.944406	31.592	
C	-0.072099473	 1.5406361294	-0.2426619696	-0.369112
C	-0.0044032004	 0.0788509211	 0.2159755877	-0.206255
C	-1.3604503821	-0.5953042226	 0.1896848228	-0.003263
C	-1.9057504231	-1.239293472	-1.0766398329	-0.352529
C	-1.5654768927	-2.0808929552	 0.1336708634	 0.386632
C	-0.4191642928	-3.0661866899	 0.0979140049	-0.447764
O	-2.6467532603	-2.5106174059	 0.9283738237	-0.467017
H	 0.9159222773	 2.0109444311	-0.2192799683	 0.108142
H	-0.4579506814	 1.6133184378	-1.2649000593	 0.117765
H	-0.7360301419	 2.1255244906	 0.4031654823	 0.115054
H	 0.69877405	-0.466568351	-0.4241222593	 0.092321
H	 0.4089632947	 0.033194587	 1.232141059	 0.099466
H	-2.1158251759	-0.0964859651	 0.7924323911	 0.092329
H	-2.9554709184	-1.098515726	-1.309449339	 0.107755
H	-1.2489229314	-1.2936610914	-1.9404280571	 0.102521
H	 0.4179019775	-2.7026621302	-0.5030488034	 0.117835
H	-0.0570592672	-3.2711996455	 1.1106551569	 0.12485
H	-0.7469501073	-4.0175385025	-0.3402046077	 0.104929
H	-3.0318421016	-3.2851865296	 0.5027899548	 0.276341
84.7146	154.7692	187.0853	224.2769	257.3948	303.9297	320.3115	385.0115	419.2432	434.3883	519.3321	703.2826	778.6875	812.4912	892.1228	925.3245	928.5582	965.9063	1004.3359	1041.184	1050.3763	1086.7325	1119.5501	1133.6326	1194.6058	1240.5894	1289.9357	1303.3779	1336.6545	1373.1308	1409.0838	1415.9771	1426.2478	1477.3109	1487.9428	1490.5244	1497.8496	1507.4229	1512.4083	3019.1692	3024.1467	3031.9642	3056.0729	3085.1021	3100.4796	3104.264	3118.9057	3122.5141	3139.5608	3212.2639	3786.4335
CCC1CC1(C)O	CC[C@H]1C[C@]1(C)O	
InChI=1S/C6H12O/c1-3-5-4-6(5,2)7/h5,7H,3-4H2,1-2H3	InChI=1S/C6H12O/c1-3-5-4-6(5,2)7/h5,7H,3-4H2,1-2H3/t5-,6-/m0/s1
