15
gdb 4164	3.18147	1.5787	1.1449	0.4096	73.05	-0.2331	-0.0335	0.1996	1029.0079	0.116749	-362.571238	-362.562982	-362.562038	-362.604466	30.177	
O	-0.1530905244	 1.3118378639	 0.3998808157	-0.385118
N	-0.09821987	-0.0755395083	 0.4432714209	-0.178947
C	-1.2191336059	-0.6274030272	 0.1338065643	 0.181305
C	-2.3877502837	 0.0976067392	-0.2457120409	 0.327261
C	-3.3987186969	 0.6578658259	-0.5821567287	-0.456762
C	-1.3260307301	-2.1127236495	 0.2032945029	-0.078019
C	-0.1287215927	-2.9655392521	 0.5342462281	-0.265299
C	-1.2218844484	-2.809064389	 1.5520511265	-0.248623
H	 0.7492597619	 1.560312319	 0.6292759424	 0.309103
H	-4.2825270281	 1.1700455392	-0.8733676921	 0.204496
H	-2.0551527573	-2.5221172477	-0.4869183072	 0.098601
H	-0.0375539578	-3.912715451	 0.0147361813	 0.112904
H	 0.8048066418	-2.4468411778	 0.7117251801	 0.137288
H	-1.0228323814	-2.176620751	 2.4097775946	 0.125577
H	-1.8876715673	-3.6432836134	 1.7431907019	 0.116231
37.8618	139.0238	168.5339	206.3423	265.5426	363.8959	385.2135	444.9178	486.1021	610.1189	628.5907	642.0947	701.0515	764.6479	803.8407	829.378	909.4471	924.4408	1007.1375	1061.4858	1085.8594	1127.6564	1129.9556	1186.6113	1202.9553	1236.927	1389.8074	1424.2595	1461.2418	1494.7117	1671.522	2220.6712	3136.8935	3146.7298	3172.6206	3224.3495	3242.9914	3500.3069	3811.2501
ON=C(C#C)C1CC1	ON=C(C#C)C1CC1	
InChI=1S/C6H7NO/c1-2-6(7-8)5-3-4-5/h1,5,8H,3-4H2	InChI=1S/C6H7NO/c1-2-6(7-8)5-3-4-5/h1,5,8H,3-4H2
