15
gdb 1967	8.2862	1.51186	1.35316	2.968	58.38	-0.2422	-0.0209	0.2212	872.3949	0.123071	-345.650105	-345.642843	-345.641899	-345.681734	25.861	
C	 0.2070114191	 1.502618139	-0.139389532	-0.240615
O	-0.3178376646	 0.2013798126	-0.2907655616	-0.237512
C	 0.478295152	-0.6280018819	-1.0895217556	 0.140817
C	 1.7855662246	-1.2071460388	-0.4466126951	-0.372704
C	 1.2847740248	-2.6015917374	-0.8575956338	 0.397208
O	 1.8039221068	-3.6758021138	-0.9422575829	-0.286678
C	-0.1041519739	-2.0574529803	-1.2231196269	-0.370195
H	 1.1893964272	 1.4947224955	 0.356210394	 0.110158
H	 0.3143688896	 2.0111144231	-1.1100727464	 0.108711
H	-0.4954262422	 2.0651751472	 0.4795942999	 0.132247
H	 0.6779230058	-0.1582970554	-2.0636270314	 0.076602
H	 2.7579719396	-0.9004221266	-0.8383300151	 0.126967
H	 1.7778803912	-1.087308953	 0.6426050903	 0.138253
H	-0.8340545407	-2.2510565796	-0.4295861733	 0.145709
H	-0.5247831893	-2.3668653706	-2.1819621902	 0.131033
66.3904	112.8128	194.5637	248.5187	380.8847	404.9515	439.9216	501.7132	646.4283	666.5237	756.198	904.7355	930.1633	995.7838	1014.2759	1078.9677	1107.8998	1156.9918	1174.8175	1181.1751	1188.4912	1237.2929	1251.1877	1280.9914	1383.4981	1416.6552	1439.039	1483.6506	1487.2687	1508.2662	1896.9018	2977.0116	2998.4335	3026.2086	3053.4445	3061.5779	3120.2927	3121.3597	3126.7456
COC1CC(=O)C1	COC1CC(=O)C1	
InChI=1S/C5H8O2/c1-7-5-2-4(6)3-5/h5H,2-3H2,1H3	InChI=1S/C5H8O2/c1-7-5-2-4(6)3-5/h5H,2-3H2,1H3
