14
gdb 1634	4.88129	2.10602	1.48729	2.8892	57.44	-0.2439	0.0078	0.2517	782.3894	0.114323	-357.939331	-357.931785	-357.930841	-357.970874	26.843	
C	 0.0411340287	 1.499953906	 0.0071995291	-0.363233
N	 0.0194340354	 0.0423547648	 0.0104715053	-0.120645
C	-0.0414609138	-0.6375752836	 1.2220824158	 0.103779
N	-0.0976119344	-0.0206707988	 2.3331686803	-0.487313
C	 0.0755386376	-0.7192675659	-1.1646186424	 0.481912
N	 0.1067997156	 0.019564817	-2.3259548693	-0.573395
O	 0.1340378024	-1.9339249932	-1.1630288511	-0.392971
H	 0.8834214292	 1.8719909999	-0.5827616998	 0.139079
H	-0.893396586	 1.9176150397	-0.3880438889	 0.126176
H	 0.1485920287	 1.823486605	 1.0418817684	 0.184336
H	-0.0320781448	-1.716225402	 1.0680107194	 0.145895
H	-0.1313748954	-0.6890607288	 3.0995549357	 0.229742
H	-0.2800108469	 0.9477931868	-2.3552092508	 0.259039
H	-0.0195982661	-0.538546057	-3.1551760717	 0.267598
83.5602	162.4966	185.7331	268.9415	288.0568	362.1505	402.5236	462.933	527.216	552.2024	660.9106	772.5687	814.024	825.4644	1035.7872	1082.0944	1098.5569	1152.6985	1159.4406	1249.7929	1367.558	1376.9987	1413.2271	1460.4463	1504.9529	1516.7086	1620.3751	1716.7049	1801.6217	3021.0174	3092.1943	3145.2786	3160.2596	3515.0282	3601.3105	3721.1203
CN(C=N)C(N)=O	CN(C=N)C(=O)N	
InChI=1S/C3H7N3O/c1-6(2-4)3(5)7/h2,4H,1H3,(H2,5,7)	InChI=1S/C3H7N3O/c1-6(2-4)3(5)7/h2,4H,1H3,(H2,5,7)
