17
gdb 3405	3.7062	2.73646	2.16001	1.4069	63.84	-0.2486	0.0728	0.3214	693.178	0.148813	-309.685651	-309.678728	-309.677784	-309.716021	26.752	
C	-0.050059	 1.5606890927	-0.0504798039	-0.413037
C	 0.0859207969	 0.0563386646	 0.0731630966	 0.011224
C	 1.3288474239	-0.7445197579	-0.1919431642	-0.067499
C	 2.5841130322	-0.0143331224	 0.2980581216	-0.283138
C	 1.9864770056	-0.0433662845	 1.7494318859	 0.123253
O	 1.7946913292	 1.1660151327	 2.4565425329	-0.428267
C	 0.7133449083	-0.6921268666	 1.2229002983	-0.08489
H	 0.7967028015	 2.0888310566	 0.3878079515	 0.134601
H	-0.1456494302	 1.8560001146	-1.1019262938	 0.104274
H	-0.9479003764	 1.9036782961	 0.4749583799	 0.114665
H	-0.7980579405	-0.4746636521	-0.2787332217	 0.081917
H	 1.3361119658	-1.5811539581	-0.8800680086	 0.08179
H	 3.5001821327	-0.6032651916	 0.2108567686	 0.096564
H	 2.7617130772	 0.978286078	-0.126666531	 0.097428
H	 2.5463147338	-0.7609725713	 2.3644818569	 0.071464
H	 2.6515356128	 1.4629127258	 2.7795483397	 0.281152
H	 0.1651701073	-1.4595977166	 1.7570773111	 0.078497
151.2545	196.1075	236.7371	289.7574	320.8365	403.4134	471.7449	612.8524	684.7888	721.6488	794.1052	840.4925	882.7101	959.7801	981.0387	992.088	1003.3331	1056.2022	1067.5978	1076.4251	1118.2948	1137.2912	1181.4985	1214.7154	1222.4422	1248.8834	1279.3266	1331.9214	1351.6216	1416.1528	1425.1366	1447.7735	1485.9377	1495.9318	1509.6493	3001.5841	3032.075	3052.5711	3087.1437	3105.948	3110.9606	3152.462	3170.9165	3185.0375	3813.1949
CC1C2CC(O)C12	C[C@H]1[C@H]2C[C@@H](O)[C@@H]12	
InChI=1S/C6H10O/c1-3-4-2-5(7)6(3)4/h3-7H,2H2,1H3	InChI=1S/C6H10O/c1-3-4-2-5(7)6(3)4/h3-7H,2H2,1H3/t3-,4+,5+,6-/m0/s1
