10
gdb 1583	4.84351	2.1634	1.50927	3.8243	49.26	-0.2845	-0.1344	0.1501	735.6062	0.063859	-359.339915	-359.332572	-359.331628	-359.372091	23.724	
C	 0.3759203615	 1.404694264	 0.0664915749	-0.485548
C	 0.1342357169	-0.07835993	 0.0629144114	 0.310165
O	-0.0890410668	-0.7622191818	 1.0296683603	-0.244909
C	 0.1829313213	-0.7599885009	-1.3217127021	 0.18699
O	 0.3988998212	-0.1648708201	-2.3450075404	-0.236984
C	-0.0575311919	-2.2134561907	-1.3009762684	 0.267481
N	-0.2403381261	-3.3542084051	-1.3406623349	-0.289116
H	 1.3558315538	 1.625641276	-0.3694272479	 0.167106
H	-0.362509836	 1.9060957136	-0.5678603272	 0.167089
H	 0.319675806	 1.7825079149	 1.0870464342	 0.157726
49.2183	113.205	146.0952	251.272	258.6408	393.4712	420.5238	490.2531	614.5321	683.0791	726.5279	931.6774	1038.7643	1072.065	1258.3078	1389.3779	1452.1858	1459.9614	1791.8486	1821.2935	2342.6699	3048.7984	3109.6429	3167.6404
CC(=O)C(=O)C#N	CC(=O)C(=O)C#N	
InChI=1S/C4H3NO2/c1-3(6)4(7)2-5/h1H3	InChI=1S/C4H3NO2/c1-3(6)4(7)2-5/h1H3
