17
gdb 4004	3.08765	1.29082	1.04563	0.5502	73.16	-0.2489	0.0052	0.2541	1156.2593	0.139159	-363.793251	-363.783926	-363.782982	-363.827622	33.409	
C	 0.4304289373	 0.3898721804	 1.4180316095	-0.378297
C	 0.0000139422	 0.001053399	-0.0091829587	-0.267373
C	-1.3855992436	-0.5896213499	-0.0415202612	 0.36802
C	-1.5586602751	-2.0975406276	-0.0178031833	-0.415394
C	-0.9331627715	-2.761544586	-1.1586129902	 0.312486
C	-0.4100260713	-3.2956687436	-2.0994752089	-0.466192
N	-2.4758251406	 0.0760989637	-0.0487404638	-0.169718
O	-2.245935416	 1.4621770963	-0.0290329238	-0.397805
H	 1.4408964809	 0.8090539046	 1.4108449644	 0.11761
H	-0.2502672299	 1.1378343515	 1.8312939244	 0.13971
H	 0.4337901686	-0.4771992695	 2.0867058442	 0.11525
H	 0.01479499	 0.8910907762	-0.6441592158	 0.130228
H	 0.7027869481	-0.7230699601	-0.4316824439	 0.114392
H	-1.1214697384	-2.4936818898	 0.910282226	 0.139292
H	-2.6298728477	-2.3194308864	 0.0143541032	 0.150408
H	 0.0431951458	-3.7744173217	-2.931860577	 0.199922
H	-3.1409833888	 1.8142883229	-0.0743498652	 0.307461
53.9378	76.4983	119.6088	216.8401	217.9398	306.7419	320.6791	343.9957	359.5614	414.7503	458.6861	591.4927	619.7338	646.5796	709.4288	771.0097	808.2028	923.1856	945.2167	987.3912	1007.1843	1075.61	1097.5395	1208.4145	1244.652	1296.7293	1318.0641	1354.1853	1404.8169	1408.3366	1454.9215	1486.7932	1499.1413	1509.3039	1731.7613	2239.0364	3005.9378	3040.5907	3058.6223	3082.0313	3097.7935	3111.4995	3131.6448	3506.1431	3821.5421
CCC(CC#C)=NO	CCC(=NO)CC#C	
InChI=1S/C6H9NO/c1-3-5-6(4-2)7-8/h1,8H,4-5H2,2H3	InChI=1S/C6H9NO/c1-3-5-6(4-2)7-8/h1,8H,4-5H2,2H3
