15
gdb 1770	4.59326	1.99653	1.77874	4.8527	62.57	-0.2531	0.0254	0.2784	765.3034	0.123825	-304.682331	-304.674697	-304.673753	-304.71368	27.271	
C	-0.2074537893	 1.4474914709	-0.0670892545	-0.319845
N	 0.0434079087	 0.0171536053	 0.0408955891	-0.092233
C	 1.3834084925	-0.4819196022	-0.1908972483	-0.26719
C	 0.7929698	-0.5082137699	 1.1919654626	 0.150682
C	 1.360202596	 0.379002129	 2.2889116063	-0.46353
C	 0.2670433553	-1.769611024	 1.6860552031	 0.274559
N	-0.1274100257	-2.7719052687	 2.1058484023	-0.340504
H	 0.6519828327	 2.086263427	 0.1842521254	 0.106252
H	-0.4950758142	 1.661644634	-1.1006210438	 0.1388
H	-1.0463338286	 1.717752713	 0.5805990263	 0.137233
H	 1.464619811	-1.3942494038	-0.7747048044	 0.137598
H	 2.1875979813	 0.2385995277	-0.3426447973	 0.116567
H	 1.8327837305	 1.2715887868	 1.8764224029	 0.130101
H	 0.5750760266	 0.6878932107	 2.9856359857	 0.143617
H	 2.1154684635	-0.1710025659	 2.8571322246	 0.147896
144.0751	163.0238	175.7259	177.8324	283.412	318.4209	401.457	436.496	569.427	573.7854	667.7208	766.7518	870.1771	930.4123	987.4891	1064.1069	1091.1666	1127.6876	1142.3206	1170.9993	1203.6513	1262.7289	1364.0451	1413.2121	1448.2008	1481.9692	1483.5419	1496.9698	1504.644	1508.9711	2356.3267	2992.2801	3050.6754	3080.5025	3085.5691	3114.9039	3117.1064	3140.1981	3184.852
CN1CC1(C)C#N	CN1C[C@]1(C)C#N	
InChI=1S/C5H8N2/c1-5(3-6)4-7(5)2/h4H2,1-2H3	InChI=1S/C5H8N2/c1-5(3-6)4-7(5)2/h4H2,1-2H3/t5-,7?/m0/s1
