16
gdb 4794	5.00344	1.38047	1.09127	1.2867	68.31	-0.162	0.0719	0.234	1056.5594	0.131205	-379.93638	-379.928055	-379.927111	-379.968914	30.435	
C	-0.6202970628	 0.5974995327	 0.2793291737	-0.243449
O	 0.5691684486	 0.8269944316	-0.4543657205	-0.260399
C	 0.9329407167	-0.1804167336	-1.2788545891	 0.43961
C	 0.3920396136	-1.4163947242	-1.558206327	-0.372582
C	 1.2581758668	-2.0255360288	-2.5257027985	 0.261536
N	 1.0145266556	-3.2723952888	-3.1396680023	-0.605475
C	 2.2808453897	-1.1487512466	-2.7901561812	-0.177635
N	 2.0595684535	-0.0079957571	-2.0189686101	-0.337651
H	-1.4759679983	 0.4483463078	-0.3915422615	 0.126825
H	-0.5206947366	-0.281857229	 0.9285899073	 0.124277
H	-0.7850838389	 1.4861061911	 0.8904635222	 0.132379
H	-0.5127501811	-1.8366340255	-1.1510196682	 0.085177
H	 0.6899412664	-3.9627578705	-2.4728636908	 0.23559
H	 1.8425970076	-3.6374190811	-3.5942539095	 0.233556
H	 3.1255581886	-1.2172061755	-3.4545621773	 0.09978
H	 2.6429927504	 0.8076175077	-1.9757777771	 0.258458
88.4311	174.1909	183.2868	204.1896	230.7556	250.3059	372.5096	410.1097	498.3878	581.9569	598.8667	639.6506	673.9148	722.1221	733.781	804.9689	989.125	1000.9392	1088.0996	1100.6987	1118.8286	1185.005	1193.6641	1236.8703	1294.1829	1327.02	1448.527	1471.0723	1483.4442	1506.3048	1519.4961	1591.6071	1640.6806	1660.0244	3007.3061	3065.4499	3137.3633	3261.1894	3271.9957	3519.3062	3606.7865	3700.1082
COC1=CC(N)=CN1	COc1cc(N)c[nH]1	
InChI=1S/C5H8N2O/c1-8-5-2-4(6)3-7-5/h2-3,7H,6H2,1H3	InChI=1S/C5H8N2O/c1-8-5-2-4(6)3-7-5/h2-3,7H,6H2,1H3
