15
gdb 1778	4.17102	2.12222	1.77143	2.5444	58.64	-0.2468	-0.0257	0.2211	755.3922	0.122553	-345.65267	-345.644984	-345.64404	-345.684093	27.727	
C	-0.0487296576	 1.4006164144	-0.0809009414	-0.425201
C	 0.1566475047	-0.0924361402	 0.0212272903	-0.038004
C	 1.5073149895	-0.7048949862	-0.1756494204	-0.303804
C	 0.9118530935	-0.6734329687	 1.2200350316	 0.270778
O	 1.5351653166	 0.1808368327	 2.1341801956	-0.461986
C	 0.4261245121	-1.963091837	 1.7809357323	 0.100556
O	-0.1298560467	-2.8235643225	 1.1405402472	-0.269369
H	 0.8031713459	 1.9444152837	 0.3358274673	 0.130559
H	-0.163215575	 1.7021929245	-1.1271942183	 0.129641
H	-0.9513975062	 1.7182255703	 0.4530856092	 0.11801
H	-0.6790144572	-0.7134748769	-0.2898385287	 0.114076
H	 1.5749891341	-1.6763806686	-0.651624711	 0.137086
H	 2.3510103644	-0.038979726	-0.3213666611	 0.129212
H	 0.8549695984	 0.645122563	 2.6344502501	 0.29072
H	 0.6256709333	-2.0733727425	 2.8709268073	 0.077725
120.4597	179.372	196.5602	208.1028	262.1462	305.5285	384.3412	423.5038	501.4905	623.0779	709.1266	759.3442	879.1083	921.1385	948.6297	1017.664	1053.6388	1081.4841	1090.3171	1136.2348	1193.9749	1247.442	1265.1728	1339.7475	1393.3827	1410.468	1421.246	1465.7294	1497.3737	1502.0177	1808.7935	2881.2079	3033.2858	3092.618	3116.1603	3137.5524	3154.7387	3235.7901	3796.6172
CC1CC1(O)C=O	C[C@H]1C[C@]1(O)C=O	
InChI=1S/C5H8O2/c1-4-2-5(4,7)3-6/h3-4,7H,2H2,1H3	InChI=1S/C5H8O2/c1-4-2-5(4,7)3-6/h3-4,7H,2H2,1H3/t4-,5-/m0/s1
