13
gdb 4689	6.14759	1.34636	1.10676	5.9805	71.66	-0.2029	-0.0116	0.1914	989.5458	0.098108	-357.696558	-357.689435	-357.688491	-357.727779	26.436	
N	 0.1279213807	 1.3786385058	 0.1440939116	-0.607386
C	-0.0143737362	-0.0037269153	 0.0326193487	 0.329561
C	-1.144371883	-0.8067604555	-0.0059336113	-0.201471
C	-0.7062942367	-2.1501779749	-0.0239302625	-0.210242
C	 0.6763819026	-2.1461471097	-0.0054258363	 0.200108
N	 1.0808843414	-0.8136943165	 0.0303043315	-0.349768
C	 1.605781637	-3.201022035	-0.0302757519	 0.190799
N	 2.3869266458	-4.059883907	-0.0476140718	-0.358854
H	 0.7661810104	 1.7806330016	-0.5330052093	 0.253907
H	-0.76268437	 1.8536630276	 0.087514227	 0.259187
H	-2.1640772189	-0.4558216132	-0.03294638	 0.099665
H	-1.3220138462	-3.0344748574	-0.0685900083	 0.120332
H	 2.0315499531	-0.5072270205	 0.1503021928	 0.274163
139.3967	152.9733	189.4672	286.2167	376.2256	456.2134	507.6973	548.5145	582.5718	647.3414	661.5208	698.222	742.233	783.3196	857.2391	995.4167	1021.9099	1067.787	1114.4822	1227.5367	1272.5619	1330.1213	1416.367	1479.5422	1547.5001	1624.4306	1659.9419	2323.167	3252.0823	3269.3751	3528.565	3630.8799	3673.5045
NC1=CC=C(N1)C#N	Nc1ccc([nH]1)C#N	
InChI=1S/C5H5N3/c6-3-4-1-2-5(7)8-4/h1-2,8H,7H2	InChI=1S/C5H5N3/c6-3-4-1-2-5(7)8-4/h1-2,8H,7H2
