14
gdb 4093	3.5636	1.90781	1.27398	3.723	63.21	-0.235	-0.0393	0.1957	897.6932	0.108397	-415.853652	-415.8464	-415.845456	-415.885393	26.545	
O	-0.0409605656	 1.3128733704	-0.1836392631	-0.351731
N	 0.0134619101	-0.0685389084	-0.1269050026	-0.213341
C	-1.1164230008	-0.6282912324	 0.0607001107	 0.279429
C	-1.2393343268	-2.1299875677	 0.1544719255	-0.29224
C	-2.7393384761	-2.3883617049	-0.1204076731	-0.168316
N	-3.3496217175	-1.1049082577	 0.1848909825	-0.323035
C	-2.4978091104	-0.0241745483	 0.1902035419	 0.359694
O	-2.8247929113	 1.1365258226	 0.2848527162	-0.361599
H	 0.8815670836	 1.5448827321	-0.3402375311	 0.312003
H	-0.5814352498	-2.6517114095	-0.5418543322	 0.13336
H	-0.9835710192	-2.4617501527	 1.1671313631	 0.135295
H	-2.9071908738	-2.6763348043	-1.167321142	 0.11668
H	-3.1453175477	-3.1820112693	 0.5137813713	 0.119142
H	-4.3434861448	-0.9449174998	 0.133869293	 0.254659
79.0833	152.4304	217.3411	287.1008	327.9182	432.7751	489.319	494.241	544.2622	681.8202	701.0552	749.5177	777.8954	866.0763	949.2164	1025.2153	1068.8701	1076.8707	1164.6167	1202.1198	1230.0141	1273.2297	1301.3327	1357.8429	1423.1872	1446.2076	1478.429	1536.5657	1735.1635	1825.4233	3006.0595	3044.1767	3072.8589	3121.5072	3638.8766	3802.159
ON=C1CCNC1=O	ON=C1CCNC1=O	
InChI=1S/C4H6N2O2/c7-4-3(6-8)1-2-5-4/h8H,1-2H2,(H,5,7)	InChI=1S/C4H6N2O2/c7-4-3(6-8)1-2-5-4/h8H,1-2H2,(H,5,7)
