12
gdb 4616	5.82367	1.59174	1.25007	5.158	60.55	-0.2185	-0.0629	0.1556	871.2338	0.085453	-414.712448	-414.705901	-414.704957	-414.743212	24.32	
O	-0.0384203707	 1.4133056556	 0.008828617	-0.445445
C	-0.0080909567	 0.0486621967	 0.0010578499	 0.270584
C	-1.1665278119	-0.6682654501	 0.0040635796	-0.016829
N	-1.0906189073	-2.0244458496	-0.0037620616	-0.335134
C	 0.1088303187	-2.7710362953	-0.0148665135	 0.44281
O	 0.0663921467	-3.9820935507	-0.0218427648	-0.387217
N	 1.2743792765	-2.0118292025	-0.0180167822	-0.307197
C	 1.1957724484	-0.7124512959	-0.0104062612	-0.060762
H	 0.8638341753	 1.7491569404	 0.0042450524	 0.305121
H	-2.148744216	-0.2125780528	 0.0123987744	 0.149594
H	-1.9327086993	-2.5823138852	-0.0018161836	 0.273501
H	 2.1459787062	-0.1678111506	-0.0131934264	 0.110973
102.0121	198.5587	344.7924	347.7467	398.7427	484.1975	492.0822	515.0299	654.9665	688.2858	796.6158	800.7601	842.8669	903.3024	979.4651	1005.3346	1080.6553	1196.3324	1217.7915	1313.1772	1399.9838	1446.2015	1470.0352	1574.429	1716.1443	1810.768	3071.0528	3217.158	3614.6534	3826.4857
OC1=CNC(=O)N=C1	Oc1c[nH]c(=O)nc1	
InChI=1S/C4H4N2O2/c7-3-1-5-4(8)6-2-3/h1-2,7H,(H,5,6,8)	InChI=1S/C4H4N2O2/c7-3-1-5-4(8)6-2-3/h1-2,7H,(H,5,6,8)
