14
gdb 2905	6.85262	2.05605	1.61319	4.0357	59.98	-0.2363	0.0058	0.2421	732.2384	0.114892	-324.608961	-324.602635	-324.601691	-324.639632	22.521	
O	 0.0021874259	-0.0082696454	 0.0006041542	-0.340699
C	 0.0481769296	 1.2061254144	 0.0084041987	 0.142722
N	 1.190792207	 1.9304846321	-0.0018392369	-0.052096
C	 2.5109233486	 1.2955416572	-0.0215513973	-0.193383
C	 3.4295201641	 2.4859844442	-0.0206332769	-0.07556
C	 2.7523028933	 3.6301147343	-0.0036332763	-0.071314
C	 1.26531658	 3.3932163469	 0.0096391714	-0.208327
H	-0.8567349247	 1.8475675187	 0.0247458964	 0.067317
H	 2.6481046363	 0.6420318729	 0.8507826074	 0.131632
H	 2.6297770096	 0.6579060182	-0.9082333751	 0.131514
H	 4.5068628734	 2.3815042794	-0.0327986009	 0.11185
H	 3.1728170459	 4.6274192587	 0.000613216	 0.110728
H	 0.7681539115	 3.8366746924	-0.8658449664	 0.122791
H	 0.7861198594	 3.821793726	 0.9023573758	 0.122825
58.1401	203.1997	224.7154	328.5471	405.5783	509.0819	694.1667	753.14	809.0765	869.1985	961.465	966.1038	990.0998	1024.9478	1036.5015	1045.5886	1132.5972	1190.6993	1201.0301	1217.8167	1321.547	1337.0177	1375.6873	1410.664	1447.0287	1511.0955	1519.8819	1696.0159	1792.2915	2922.7536	2986.7496	3005.892	3010.609	3029.6257	3210.0548	3233.3691
O=CN1CC=CC1	O=CN1CC=CC1	
InChI=1S/C5H7NO/c7-5-6-3-1-2-4-6/h1-2,5H,3-4H2	InChI=1S/C5H7NO/c7-5-6-3-1-2-4-6/h1-2,5H,3-4H2
