11
gdb 4737	6.70788	1.37108	1.13839	4.061	62.44	-0.2295	-0.044	0.1855	933.0819	0.074389	-393.631867	-393.625424	-393.62448	-393.662465	23.813	
O	 0.1146678117	 1.3440623661	-0.0691057071	-0.431605
C	 0.0707472888	 0.0002641825	-0.0632417622	 0.349211
C	-0.0227043081	-0.8199747784	-1.1706215327	-0.180634
N	-0.0331202686	-2.0920786699	-0.6537895498	-0.278948
C	 0.0508622738	-1.9887218358	 0.7023037639	 0.256014
N	 0.1158854815	-0.717649842	 1.0844113202	-0.373347
C	 0.0638626118	-3.1261292148	 1.545522072	 0.24403
N	 0.0717960367	-4.08055697	 2.2018113482	-0.336216
H	 0.1791855117	 1.625587067	 0.8521763563	 0.310463
H	-0.0791605863	-0.6157939738	-2.2248556694	 0.152731
H	-0.0924354331	-2.9504699909	-1.1771018393	 0.2883
147.1648	158.7558	333.6661	392.199	406.1671	493.2682	559.6571	565.3021	589.5357	672.0527	718.5144	737.3765	742.5916	1011.8575	1039.2199	1113.2729	1183.0914	1281.9186	1340.0958	1428.1795	1455.1589	1538.5242	1641.6843	2344.5685	3296.8858	3662.1743	3800.1218
OC1=CNC(=N1)C#N	Oc1c[nH]c(n1)C#N	
InChI=1S/C4H3N3O/c5-1-3-6-2-4(8)7-3/h2,8H,(H,6,7)	InChI=1S/C4H3N3O/c5-1-3-6-2-4(8)7-3/h2,8H,(H,6,7)
