11
gdb 4638	5.44416	1.49568	1.17333	6.3659	58.37	-0.2463	-0.0677	0.1786	909.6491	0.072679	-434.599108	-434.592669	-434.591725	-434.630026	23.06	
O	-0.0350046786	-0.0617420478	-0.0004212913	-0.269997
C	-0.0101653424	 1.1467121333	 0.009045065	 0.07332
C	 1.1861094903	 1.9672573755	 0.0021453002	 0.257196
C	 1.3012293199	 3.3156972688	 0.0118974829	-0.14578
N	 2.6440441704	 3.5976893624	-0.0011397454	-0.352623
C	 3.3826785909	 2.4149640001	-0.0192353801	 0.489796
O	 4.5684132546	 2.2685450718	-0.0336968666	-0.375189
O	 2.4469406391	 1.405322722	-0.0166427141	-0.222931
H	-0.9379564714	 1.7611398455	 0.0245608972	 0.078364
H	 0.5370163746	 4.0750570531	 0.0267899601	 0.177539
H	 3.0829717326	 4.5025275454	 0.0012464621	 0.290304
128.7679	166.0409	200.7984	347.3132	475.8812	496.4176	524.1447	623.7112	706.553	761.2932	805.9959	807.8281	944.127	973.4776	1007.789	1097.7771	1113.5776	1306.6746	1353.48	1419.3587	1431.0686	1656.5697	1793.2852	1913.4682	2881.7848	3280.9087	3684.324
O=CC1=CNC(=O)O1	O=Cc1c[nH]c(=O)o1	
InChI=1S/C4H3NO3/c6-2-3-1-5-4(7)8-3/h1-2H,(H,5,7)	InChI=1S/C4H3NO3/c6-2-3-1-5-4(7)8-3/h1-2H,(H,5,7)
