13
gdb 2059	5.28819	2.72803	1.82353	3.2433	55.98	-0.2111	0.0137	0.2248	654.0449	0.104681	-340.689515	-340.683243	-340.682299	-340.72015	22.658	
O	-0.0138085292	-0.0598255598	 0.0059477254	-0.407944
C	-0.004626096	 1.1569070752	 0.0151383377	 0.456812
N	-1.1360021798	 1.9232692332	-0.0760656435	-0.354746
C	-1.2454799448	 3.3729257746	 0.0685550926	-0.196577
C	 0.1114597829	 4.0109438222	-0.0218210693	-0.11814
C	 1.2186150359	 3.2698638216	 0.001550555	 0.025221
N	 1.1763794201	 1.884011658	 0.097329984	-0.363416
H	-1.9807824838	 1.3748649551	-0.0858523244	 0.253456
H	-1.9051787344	 3.7621710905	-0.7207694496	 0.116025
H	-1.7312547162	 3.6330048772	 1.0253052148	 0.111824
H	 0.1713340676	 5.0889298458	-0.0859355767	 0.099222
H	 2.2130178831	 3.6976588198	-0.0467911556	 0.11715
H	 2.0147571747	 1.3300384266	 0.0648496796	 0.261112
59.559	118.4852	398.1998	455.5321	462.2544	542.075	552.2341	586.2722	720.0855	761.2036	833.3916	929.879	948.1534	986.1732	1047.2469	1066.6811	1149.8229	1207.5863	1241.1606	1310.4689	1386.0359	1447.6736	1464.4309	1493.0831	1537.3291	1746.644	1816.8204	2938.4909	2991.5529	3199.5889	3227.0489	3647.5866	3676.8095
O=C1NCC=CN1	O=C1NCC=CN1	
InChI=1S/C4H6N2O/c7-4-5-2-1-3-6-4/h1-2H,3H2,(H2,5,6,7)	InChI=1S/C4H6N2O/c7-4-5-2-1-3-6-4/h1-2H,3H2,(H2,5,6,7)
