17
gdb 1956	7.45043	1.39811	1.34015	3.0097	65.49	-0.245	-0.0211	0.2238	930.7486	0.147503	-309.722373	-309.714878	-309.713934	-309.754416	26.943	
C	-0.3023792599	 1.4790108145	-0.0199906905	-0.393113
C	 0.0094634498	-0.013615547	 0.0163331613	 0.034476
C	 1.1996236376	-0.4437183768	-0.8899403478	-0.250816
C	 2.129935628	-0.4916814876	 0.3644110027	-0.046755
C	 0.8432445015	-0.4660183315	 1.2504895013	-0.250853
C	 3.0038408586	-1.7048655162	 0.4973102912	 0.157461
O	 4.1918374928	-1.6979962115	 0.6948736659	-0.25337
H	 0.600254844	 2.0808508823	 0.1369892114	 0.117388
H	-0.7301184054	 1.7682513796	-0.9860881733	 0.117142
H	-1.0216227706	 1.7498544044	 0.7605811925	 0.117145
H	-0.9114767123	-0.5822165806	-0.1429327347	 0.07188
H	 1.0556841643	-1.4376331933	-1.3261212691	 0.103936
H	 1.499008486	 0.2430613571	-1.6853631973	 0.109276
H	 2.7448019134	 0.4029007123	 0.476103952	 0.091344
H	 0.8664383542	 0.2036049036	 2.1136446783	 0.10928
H	 0.569184938	-1.4680834396	 1.5962832947	 0.103939
H	 2.44565084	-2.6686418398	 0.3948685415	 0.061639
64.0517	77.7849	249.5119	264.5943	284.0832	363.3093	365.2596	479.1313	712.4646	799.0726	799.9715	891.481	909.2686	912.7272	924.9176	1007.9111	1029.9135	1083.5524	1093.8917	1140.6925	1183.0495	1238.7384	1238.9228	1265.1814	1270.7438	1280.8067	1320.3899	1370.6973	1409.847	1428.1392	1468.6018	1488.8829	1497.6671	1497.7465	1829.9472	2825.8796	3024.8202	3044.6653	3046.0708	3058.9122	3093.5815	3094.2681	3095.4244	3105.8183	3113.9175
CC1CC(C1)C=O	C[C@H]1C[C@@H](C1)C=O	
InChI=1S/C6H10O/c1-5-2-6(3-5)4-7/h4-6H,2-3H2,1H3	InChI=1S/C6H10O/c1-5-2-6(3-5)4-7/h4-6H,2-3H2,1H3/t5-,6-
