12
gdb 308	9.32445	2.68104	2.36185	4.16	46.42	-0.2737	0.0124	0.2861	549.3072	0.096346	-306.403144	-306.397481	-306.396537	-306.432231	20.176	
C	-0.3582796094	 1.5284926732	 0.0273926258	-0.399743
C	 0.0699339107	 0.0794163337	-0.0157854342	 0.15301
C	 0.8637227741	-0.4179363937	-1.239893481	-0.427113
C	 1.9879562376	-0.6230298478	-0.2237313323	 0.449421
O	 3.1089295937	-1.0167030686	-0.2131041265	-0.314836
O	 1.2475970946	-0.1699745896	 0.8378198178	-0.249461
H	 0.4602666721	 2.1861595575	-0.2808143486	 0.131095
H	-1.207089282	 1.6900487155	-0.6451537756	 0.12857
H	-0.6645626989	 1.8099325407	 1.0388683907	 0.140018
H	-0.7361356881	-0.5904947591	 0.2957438774	 0.102098
H	 0.5135313534	-1.3357859878	-1.7144634927	 0.144595
H	 1.0808135423	 0.3314260459	-2.0036904205	 0.142347
116.3346	233.0215	318.1448	427.8967	509.0255	525.645	714.3551	819.2584	870.5523	908.8158	968.4205	1047.2631	1070.4159	1115.2641	1138.9646	1200.6728	1225.8349	1320.2778	1382.9581	1415.9786	1456.3164	1484.7157	1495.4899	1940.6331	3040.2249	3073.9632	3088.3148	3114.4091	3121.4568	3146.4347
CC1CC(=O)O1	C[C@H]1CC(=O)O1	
InChI=1S/C4H6O2/c1-3-2-4(5)6-3/h3H,2H2,1H3	InChI=1S/C4H6O2/c1-3-2-4(5)6-3/h3H,2H2,1H3/t3-/m0/s1
