17
gdb 3098	3.84868	2.06098	1.7492	3.1278	59.99	-0.2484	0.0595	0.3079	791.7343	0.147716	-346.829652	-346.821618	-346.820674	-346.861644	29.262	
C	 0.0299351087	 1.582007211	-0.1677147352	-0.418496
C	 0.0351810344	 0.0768942315	 0.0006733328	-0.058958
C	 1.3311153268	-0.7041405361	 0.0242125771	 0.065481
O	 2.5569845232	-0.0189506792	 0.0872813064	-0.422638
C	 0.5007148504	-0.6206151241	 1.2739892892	-0.068884
C	 1.0569287606	 0.1316477298	 2.4698720307	-0.075835
O	 2.2064456289	-0.5032189331	 3.0084872157	-0.429565
H	 0.9717983194	 2.0296431632	 0.1569915137	 0.128783
H	-0.1145907473	 1.8460775058	-1.2214644625	 0.112742
H	-0.7808767856	 2.0488339847	 0.4012285401	 0.122885
H	-0.7845364076	-0.4236782785	-0.5090944415	 0.085173
H	 1.3791540657	-1.6532316634	-0.5079210368	 0.087134
H	 2.7704133077	 0.3192887648	-0.7884017134	 0.293885
H	-0.0292729172	-1.531380357	 1.5376286263	 0.090765
H	 1.2709171348	 1.1756455368	 2.209522782	 0.09058
H	 0.3135040402	 0.1472811039	 3.2737682886	 0.104057
H	 2.8700129367	-0.4794209802	 2.3090478067	 0.292891
90.9269	140.1119	181.3071	204.9246	283.0183	289.4621	336.447	467.4895	491.4669	562.3118	633.7463	765.6785	788.8031	874.278	942.1456	978.9821	1013.3349	1062.5237	1069.6176	1120.2838	1142.567	1148.2388	1174.5588	1241.8347	1249.7312	1286.8673	1355.7505	1378.1733	1404.3895	1420.0962	1437.0451	1455.5073	1499.9076	1500.8684	1510.9793	3024.5286	3034.3767	3071.8817	3088.5298	3104.3916	3119.3563	3134.6037	3151.0989	3798.4179	3809.0671
CC1C(O)C1CO	C[C@H]1[C@@H](O)[C@H]1CO	
InChI=1S/C5H10O2/c1-3-4(2-6)5(3)7/h3-7H,2H2,1H3	InChI=1S/C5H10O2/c1-3-4(2-6)5(3)7/h3-7H,2H2,1H3/t3-,4+,5-/m1/s1
