12
gdb 3798	7.76491	2.18361	1.72296	2.2807	52.79	-0.2298	0.0072	0.237	684.8041	0.090582	-360.497612	-360.491441	-360.490497	-360.527954	21.538	
C	 0.0139104128	 1.4163890939	-0.0433552583	-0.250029
O	 0.0053056006	-0.0167193195	-0.0060092618	-0.262649
C	 0.5816321621	-0.6533331245	-1.0162514657	 0.54683
C	 0.7216665413	-1.993025971	-1.2434525879	-0.402137
C	 1.4173287529	-2.0200987582	-2.4752724394	 0.058959
N	 1.6803548228	-0.8284054492	-2.9566090401	-0.16482
O	 1.1326970453	 0.0625836154	-2.0021218293	-0.222027
H	 1.0382263809	 1.7993895477	-0.0492223204	 0.147828
H	-0.5147374088	 1.7858558281	-0.9265163162	 0.147817
H	-0.5009266816	 1.7332811829	 0.8631114687	 0.144931
H	 0.381301738	-2.8067447934	-0.6285983985	 0.122273
H	 1.7434828236	-2.8833128422	-3.0396268513	 0.133025
83.37	160.7796	238.0539	304.7783	501.1419	632.1033	671.7513	711.7784	764.4215	889.0328	925.8684	927.3319	990.8002	1048.7395	1075.7832	1175.6125	1201.9836	1228.4613	1326.9309	1382.2235	1464.382	1485.7033	1498.9291	1550.5921	1658.8921	3045.4861	3119.5553	3162.0021	3237.3529	3297.0698
COC1=CC=NO1	COc1ccno1	
InChI=1S/C4H5NO2/c1-6-4-2-3-5-7-4/h2-3H,1H3	InChI=1S/C4H5NO2/c1-6-4-2-3-5-7-4/h2-3H,1H3
