18
gdb 3182	4.29399	2.38117	1.9189	0.9863	67.74	-0.2185	0.0929	0.3114	748.7238	0.159426	-289.794194	-289.786894	-289.78595	-289.825221	28.063	
C	-0.1066487924	 1.3920521682	-0.3208033683	-0.433767
C	 0.1041602857	-0.0728367648	-0.0008657398	 0.366197
C	 1.3181671844	-0.7629406948	-0.5925139418	-0.318092
C	 1.2455160602	-0.4606505563	 0.8922696021	-0.294846
N	-1.170350651	-0.7390380761	 0.1846525323	-0.10841
C	-1.813528645	-1.3331151559	-0.983947512	-0.222063
C	-1.2807807836	-2.1869718537	 0.1141869998	-0.234337
H	 0.8485654031	 1.9173362706	-0.4095712611	 0.109178
H	-0.6467011758	 1.5106183501	-1.2670096634	 0.114607
H	-0.6975781527	 1.8714562641	 0.4657380482	 0.125013
H	 1.2535143177	-1.8011799494	-0.8982043241	 0.109934
H	 1.9854717888	-0.1701215751	-1.2093080078	 0.108861
H	 1.8759570259	 0.3229163624	 1.2990314466	 0.110469
H	 1.0922610909	-1.3012109993	 1.5610155287	 0.114316
H	-2.8806279324	-1.1555397194	-1.08402895	 0.114142
H	-1.2564059535	-1.3400394946	-1.9193209054	 0.111285
H	-0.3982829397	-2.7838946258	-0.1054770838	 0.111892
H	-1.9519107706	-2.6344944401	 0.8423784998	 0.115621
74.2068	213.1462	236.0189	260.5077	322.1828	359.9015	460.7267	509.8248	620.8776	773.0268	797.7339	833.38	861.8131	902.4121	929.757	941.3069	987.0198	1026.0532	1039.8704	1063.3492	1075.6773	1108.6987	1117.9517	1124.6836	1170.4272	1180.27	1186.0485	1252.8337	1327.0923	1358.3196	1416.3381	1461.5736	1481.2783	1485.5431	1497.9992	1509.1133	1520.6428	3031.9329	3094.8505	3096.4634	3101.4567	3113.6987	3129.0689	3134.1474	3174.7781	3189.2374	3206.7172	3219.9674
CC1(CC1)N1CC1	CC1(CC1)N1CC1	
InChI=1S/C6H11N/c1-6(2-3-6)7-4-5-7/h2-5H2,1H3	InChI=1S/C6H11N/c1-6(2-3-6)7-4-5-7/h2-5H2,1H3
