15
gdb 4493	3.6924	1.73922	1.19724	0.3784	65.47	-0.1785	0.0344	0.2129	971.8001	0.118336	-399.825042	-399.816864	-399.81592	-399.857266	29.841	
C	 0.1066479319	 1.4727460184	 0.0256702804	-0.487266
C	-0.0632614745	-0.00326211	 0.0109342396	 0.367194
C	-1.1488220583	-0.8184220597	 0.0931786021	-0.331474
C	-0.6673454802	-2.1723974163	 0.0117807686	 0.144543
N	-1.4410237095	-3.3472939898	-0.026156578	-0.616902
C	 0.6820786408	-2.0661208047	-0.1083679611	 0.272963
O	 1.6458864316	-3.013044529	-0.149762696	-0.431326
O	 1.0727164207	-0.7532287213	-0.1132110846	-0.207836
H	 0.7379383503	 1.8002538776	 0.8601006307	 0.135264
H	 0.5734366843	 1.8360405628	-0.897501028	 0.133693
H	-0.8682907305	 1.9552792603	 0.1261364288	 0.132515
H	-2.1773739736	-0.5039278957	 0.1858341106	 0.0991
H	-2.1467047554	-3.3606898384	 0.701248312	 0.241445
H	-0.8551152554	-4.167257596	 0.0819483941	 0.243925
H	 2.0693840577	-3.012613768	-1.0176902092	 0.304162
120.2789	168.9843	191.9271	243.1359	259.082	273.6387	293.0645	342.5405	516.0627	594.9142	625.1588	652.2687	665.4619	784.8983	809.7412	836.2992	982.5494	1015.1	1062.8044	1069.6933	1170.4771	1193.6818	1250.4466	1307.0881	1330.0665	1415.6654	1456.6645	1471.1973	1494.8696	1628.9236	1648.5123	1734.8845	3025.4164	3073.1233	3125.7405	3246.5456	3514.958	3602.117	3745.7152
CC1=CC(N)=C(O)O1	Cc1cc(N)c(O)o1	
InChI=1S/C5H7NO2/c1-3-2-4(6)5(7)8-3/h2,7H,6H2,1H3	InChI=1S/C5H7NO2/c1-3-2-4(6)5(7)8-3/h2,7H,6H2,1H3
