15
gdb 2590	3.16587	2.82126	1.78527	1.0263	63.61	-0.242	0.0377	0.2797	745.3473	0.12259	-308.455477	-308.447878	-308.446934	-308.486801	27.909	
C	 0.1497598813	 1.2919851834	 0.1944659556	-0.250697
O	-0.1957584761	-0.0300379523	-0.1848254336	-0.264053
C	 0.5868384812	-0.5430264186	-1.2241197284	 0.264152
C	 1.9367800075	-1.1368378552	-0.8477779544	-0.317232
C	 0.7728991699	-2.0374161634	-1.1733260449	-0.31303
C	 0.4422055116	 0.111488586	-2.501451613	 0.322582
C	 0.3140652304	 0.6773020604	-3.5552936341	-0.510289
H	 1.1912780308	 1.3525318381	 0.5408977492	 0.10663
H	 0.0136646939	 1.9971337792	-0.6355054448	 0.123121
H	-0.5181788432	 1.5661896289	 1.0136735451	 0.127552
H	 2.7496694262	-1.0540015105	-1.5592602728	 0.126957
H	 2.2174189946	-1.0410395338	 0.194984745	 0.125447
H	 0.2755168182	-2.5349213482	-0.3490061485	 0.132372
H	 0.775846252	-2.5770783611	-2.1123884214	 0.12882
H	 0.1969710517	 1.1675834371	-4.489900139	 0.197668
109.7701	161.9659	196.204	209.5001	265.5508	371.6355	431.0398	551.3249	577.1235	597.7492	669.9789	680.2311	775.823	890.1015	904.5136	950.5258	976.0451	1053.9023	1081.6261	1103.9803	1183.7408	1193.8818	1217.4782	1267.1944	1307.9552	1449.5322	1474.062	1483.8394	1486.1804	1509.2414	2229.9195	2997.5001	3057.5439	3125.7594	3141.6486	3147.7303	3231.0964	3246.0551	3501.9839
COC1(CC1)C#C	COC1(CC1)C#C	
InChI=1S/C6H8O/c1-3-6(7-2)4-5-6/h1H,4-5H2,2H3	InChI=1S/C6H8O/c1-3-6(7-2)4-5-6/h1H,4-5H2,2H3
