17
gdb 1560	6.1447	1.30461	1.13324	2.8558	61.87	-0.2532	-0.0264	0.2268	1048.3564	0.144791	-346.860539	-346.851712	-346.850768	-346.894502	29.742	
C	-0.112614056	 1.5702660621	 0.0429722646	-0.38372
C	-0.0330884457	 0.0616500718	 0.2040992406	-0.037426
O	-1.3172305214	-0.4803524607	-0.0515625319	-0.260341
C	-1.3803463322	-1.8904425726	-0.091266453	 0.047817
C	-1.3142253981	-2.5697823275	 1.2770665851	-0.4041
C	-2.674287319	-2.2241332851	-0.829527489	 0.148455
O	-3.2352282263	-3.2860464258	-0.7694323796	-0.24569
H	 0.8639290832	 2.0248817132	 0.2341616348	 0.117399
H	-0.427635505	 1.8325895813	-0.9708558289	 0.127286
H	-0.8354243389	 1.9928451798	 0.7465104645	 0.130028
H	 0.6992305909	-0.3670707726	-0.5006335742	 0.088069
H	 0.3042441058	-0.1961321824	 1.2193335953	 0.095396
H	-0.5643900584	-2.2813548465	-0.7304811741	 0.092176
H	-1.5552834542	-3.6291780996	 1.1615685818	 0.14418
H	-0.3209743187	-2.4814162309	 1.7236566023	 0.117949
H	-2.0456113105	-2.1187948084	 1.9539964055	 0.130222
H	-3.0488518256	-1.3836403662	-1.4538231938	 0.0923
58.8494	73.0098	98.4162	177.0263	210.2505	246.933	273.0612	362.2824	411.0068	457.509	616.5137	818.5678	828.5535	879.2429	917.2617	971.6877	1074.7132	1111.8136	1137.7289	1154.557	1173.0773	1189.5227	1295.5757	1328.3908	1336.8462	1382.4603	1400.5027	1404.5229	1435.5016	1483.0445	1488.3139	1496.7629	1500.011	1529.0509	1840.7632	2902.8522	2918.1826	2963.7595	3003.0918	3046.0215	3051.0817	3120.9755	3123.275	3126.4518	3136.678
CCOC(C)C=O	CCO[C@@H](C)C=O	
InChI=1S/C5H10O2/c1-3-7-5(2)4-6/h4-5H,3H2,1-2H3	InChI=1S/C5H10O2/c1-3-7-5(2)4-6/h4-5H,3H2,1-2H3/t5-/m0/s1
