17
gdb 1925	4.60054	2.74164	2.39843	1.7581	63.42	-0.2348	0.0844	0.3193	648.2453	0.149988	-309.702237	-309.696182	-309.695238	-309.731606	24.498	
C	-0.0323753292	 1.524954668	 0.0240378856	-0.501842
C	 0.033764781	 0.0168553479	 0.0277359657	 0.291214
C	 0.9626158069	-0.8151472292	-0.9234211111	-0.263833
C	 0.6164338339	-1.9198743169	 0.1021031151	 0.109947
C	 0.6668010444	-0.8229439706	 1.1912176953	-0.263834
O	-0.7915869565	-2.1286568718	-0.09563272	-0.279895
C	-1.2749082336	-0.7693856309	-0.1582305708	-0.098411
H	 0.9596227402	 1.966041256	 0.1644339999	 0.118173
H	-0.4340245104	 1.9011876642	-0.9239993226	 0.118788
H	-0.6791360122	 1.8947390442	 0.8281572019	 0.118787
H	 0.6428192855	-0.9727972958	-1.9568724293	 0.095914
H	 2.0035639886	-0.48850111	-0.8799325582	 0.096328
H	 1.1250590016	-2.8800298379	 0.1697143392	 0.077048
H	 1.6793931921	-0.4970463312	 1.4374077711	 0.096329
H	 0.075853231	-0.9877414653	 2.0960757037	 0.095914
H	-2.0041480671	-0.5883097378	 0.6415608124	 0.094686
H	-1.7568774762	-0.5817917928	-1.1260936679	 0.094686
209.186	272.9628	288.2522	375.0698	472.9402	521.0894	590.9505	670.0459	804.3821	856.972	858.4472	914.5818	940.9737	947.874	951.0714	997.4246	1015.671	1046.719	1047.8312	1127.9503	1130.1493	1178.6241	1213.2411	1223.4692	1252.2043	1259.1886	1270.4956	1312.3099	1383.7644	1415.2235	1471.8293	1491.7684	1494.2221	1506.1198	1532.8485	3011.4682	3024.5929	3050.3078	3059.0552	3065.2825	3086.3992	3097.2117	3125.8723	3131.6523	3139.3543
CC12CC(C1)OC2	C[C@@]12C[C@@H](C1)OC2	
InChI=1S/C6H10O/c1-6-2-5(3-6)7-4-6/h5H,2-4H2,1H3	InChI=1S/C6H10O/c1-6-2-5(3-6)7-4-6/h5H,2-4H2,1H3/t5-,6+
