15
gdb 3988	6.73733	0.75426	0.68407	1.2814	74.49	-0.227	-0.0242	0.2028	1562.3381	0.115331	-399.721231	-399.71153	-399.710586	-399.757788	32.229	
C	-0.7934630489	 1.14375635	 0.0573347554	-0.477831
C	 0.1500146595	-0.034878947	 0.0621323544	 0.201521
N	 0.9160269174	-0.3427347678	 1.0513176539	-0.161867
O	 0.7500963002	 0.5590707352	 2.1047312758	-0.393492
C	 0.2141296061	-0.8720956759	-1.0868373131	-0.031141
C	 0.2120925733	-1.5338076231	-2.095179131	 0.210384
C	 0.2467841069	-2.3646650487	-3.2904487237	-0.225152
O	-0.6663230873	-1.8551157116	-4.2533406323	-0.408856
H	-0.2346874614	 2.071264048	 0.2163548275	 0.149927
H	-1.3368798665	 1.2034772044	-0.8852468487	 0.137659
H	-1.5049421642	 1.0571666306	 0.8844306491	 0.149926
H	 1.3670811955	 0.2189340811	 2.7615563669	 0.311086
H	 1.2770965444	-2.3810761021	-3.6829390195	 0.12297
H	-0.0016495135	-3.4018559592	-3.0104889551	 0.122969
H	-0.6164635815	-2.4267413739	-5.0262620996	 0.291897
16.0289	69.4755	76.4284	118.3415	199.8792	224.2196	292.0832	292.9371	399.0713	421.7317	480.7196	544.8274	572.7035	600.2853	755.2875	932.5395	1021.188	1025.5606	1044.7286	1045.7986	1075.597	1242.2409	1247.563	1297.4533	1397.0306	1403.2841	1460.138	1476.3171	1483.168	1499.2612	1669.0663	2353.6181	2960.156	2977.7581	3048.1656	3106.5643	3156.2294	3817.4853	3819.68	16.0205	69.4774	76.428	118.3412	199.8783	224.2171	292.0831	292.9384	399.0732	421.7319	480.7216	544.8264	572.705	600.2851	755.2874	932.5396	1021.1886	1025.5608	1044.7288	1045.7984	1075.5965	1242.2419	1247.5633	1297.4534	1397.0303	1403.2836	1460.1386	1476.3168	1483.1677	1499.2624	1669.0666	2353.6188	2960.1559	2977.758	3048.1657	3106.5644	3156.2294	3817.4864	3819.6795
CC(=NO)C#CCO	CC(=NO)C#CCO	
InChI=1S/C5H7NO2/c1-5(6-8)3-2-4-7/h7-8H,4H2,1H3	InChI=1S/C5H7NO2/c1-5(6-8)3-2-4-7/h7-8H,4H2,1H3
