15
gdb 2073	4.65567	2.54744	1.76179	4.4766	57.07	-0.2574	0.0139	0.2713	707.0969	0.12717	-345.703157	-345.696903	-345.695959	-345.73348	23.189	
O	 0.0076143809	 0.0051546762	 0.4144712477	-0.321561
C	-0.0307078583	 1.1292272739	-0.0062870575	 0.404848
C	-1.333180081	 1.912495015	-0.1296944813	-0.32133
C	-1.2933183359	 3.1165796445	-1.0747007191	-0.214894
C	-0.00754472	 3.9013888464	-0.8180633255	-0.215669
C	 1.1855577804	 2.9869791018	-1.0491733689	-0.053806
O	 1.1344815034	 1.7569642761	-0.3036407995	-0.227464
H	-2.1115265716	 1.1928882065	-0.3928247946	 0.136748
H	-1.5621452967	 2.2512791898	 0.8897594291	 0.13927
H	-1.3117752529	 2.7778617858	-2.1184391261	 0.109091
H	-2.1806883531	 3.7402812546	-0.9298828064	 0.106918
H	 0.0793974662	 4.7662036888	-1.4843146247	 0.109213
H	 0.0054215784	 4.2799364707	 0.2115506362	 0.111559
H	 1.2620124084	 2.7288458374	-2.1140179654	 0.114001
H	 2.1250313817	 3.4602186327	-0.7523888741	 0.123076
97.4889	150.6282	322.1946	412.1375	454.094	501.2785	563.2981	660.6597	752.3066	831.9525	881.4066	936.3956	938.4492	992.8083	1066.0454	1109.3553	1115.537	1162.8415	1203.6143	1255.5691	1280.3731	1301.9509	1354.268	1372.3368	1384.0844	1429.5299	1460.6313	1484.6749	1499.5912	1518.2444	1842.132	3018.4777	3026.7175	3032.4068	3036.1284	3079.8626	3084.7144	3096.3019	3110.5858
O=C1CCCCO1	O=C1CCCCO1	
InChI=1S/C5H8O2/c6-5-3-1-2-4-7-5/h1-4H2	InChI=1S/C5H8O2/c6-5-3-1-2-4-7-5/h1-4H2
