13
gdb 3672	7.56568	2.00939	1.60358	2.4854	55.89	-0.2148	0.0292	0.244	736.1172	0.102979	-340.66616	-340.659386	-340.658442	-340.69849	24.122	
C	-0.0791966902	 1.5023168541	 0.0986896375	-0.502131
C	 0.0018032756	 0.0208636102	-0.0747031633	 0.401035
C	-0.076481337	-0.7711102994	-1.2048770104	-0.394781
C	 0.0727081128	-2.089100584	-0.7196706608	 0.432603
O	 0.0614318336	-3.208122549	-1.4747205005	-0.430217
N	 0.2310507586	-2.137588816	 0.5933232004	-0.338224
N	 0.1838753519	-0.828853742	 0.9657942327	-0.260662
H	 0.8447432049	 1.9136961037	 0.5212536519	 0.137022
H	-0.2466457044	 1.9831676788	-0.8669422009	 0.144835
H	-0.9025795752	 1.7895538943	 0.7626312534	 0.136374
H	-0.2191584954	-0.4510888351	-2.2232231354	 0.105328
H	 0.1842959581	-3.9530686136	-0.8730001154	 0.301131
H	 0.2824148768	-0.599091952	 1.939002581	 0.267686
9.6968	198.1088	282.9701	341.805	408.7911	429.3887	451.6211	603.8993	657.24	718.2537	767.4099	783.0509	985.621	1010.2939	1045.0374	1061.1219	1146.2404	1189.9074	1231.9683	1330.1963	1412.7662	1438.9981	1481.9511	1495.3483	1536.7887	1562.4695	1623.9125	3030.6642	3080.6322	3131.9489	3276.2146	3684.4404	3793.5926
CC1=CC(O)=NN1	Cc1cc(O)n[nH]1	
InChI=1S/C4H6N2O/c1-3-2-4(7)6-5-3/h2H,1H3,(H2,5,6,7)	InChI=1S/C4H6N2O/c1-3-2-4(7)6-5-3/h2H,1H3,(H2,5,6,7)
