12
gdb 2896	6.36078	2.02371	1.75228	2.8689	50.17	-0.2911	0.0021	0.2932	687.7084	0.091473	-360.513163	-360.50703	-360.506086	-360.543847	21.053	
N	 0.0338824735	-1.1398866516	-0.1423558099	-0.311483
C	 0.008775091	 0.0131157508	-0.0745454048	 0.268271
C	-0.0492381062	 1.4803081301	 0.0209701043	-0.035155
C	-0.6165689328	 1.9610975938	 1.3976009204	-0.128794
O	 0.276041253	 2.9935752247	 1.7665833059	-0.221479
C	 1.5142333144	 2.5970991755	 1.2422037807	 0.017569
O	 1.2442963681	 2.0637171524	-0.0454255246	-0.240124
H	-0.6399507022	 1.8598826511	-0.8189392847	 0.141427
H	-1.6236087444	 2.3729017575	 1.3217391481	 0.139957
H	-0.6080694058	 1.1395788192	 2.1258956192	 0.12827
H	 2.1606497562	 3.4705099576	 1.1345561544	 0.13711
H	 1.9907383552	 1.8324838289	 1.8795584811	 0.104432
56.756	177.835	252.2053	292.5847	512.2289	555.2026	686.4354	740.6993	847.0656	949.4619	982.7207	1021.2982	1058.1333	1097.3049	1111.2498	1183.8791	1214.9737	1263.9509	1296.5615	1350.8116	1370.6458	1426.1042	1512.5203	1540.7823	2359.8229	2960.71	3023.2725	3061.8523	3115.7718	3128.9874
N#CC1COCO1	N#C[C@H]1COCO1	
InChI=1S/C4H5NO2/c5-1-4-2-6-3-7-4/h4H,2-3H2	InChI=1S/C4H5NO2/c5-1-4-2-6-3-7-4/h4H,2-3H2/t4-/m0/s1
