17
gdb 3446	4.41247	2.79721	2.08613	1.4415	63.51	-0.2474	0.0908	0.3382	683.1543	0.14991	-309.71738	-309.711022	-309.710078	-309.747226	24.883	
C	 0.0393850001	 1.5520651932	-0.0351969128	-0.397492
C	 0.0495149579	 0.0337656281	 0.0507612797	 0.134158
O	 0.7495141873	-0.4793960536	-1.0877392459	-0.268615
C	 1.2231669553	-1.7856263257	-0.7771203148	-0.091719
C	 1.5210451057	-1.7676287702	 0.7122498867	-0.051832
C	 2.2704796453	-0.5593331454	 1.2120737287	-0.288691
C	 0.762473421	-0.5788474636	 1.2496134475	-0.050045
H	 1.0566563326	 1.9497727027	 0.0181058738	 0.121243
H	-0.4106476544	 1.8767766053	-0.9775526058	 0.124097
H	-0.5439636733	 1.9755068682	 0.7884022268	 0.11183
H	-0.9910888365	-0.3367339682	 0.0438705777	 0.062506
H	 0.4608033598	-2.5503963113	-1.0006012818	 0.088385
H	 2.095198613	-1.9744895005	-1.4127081218	 0.105377
H	 1.5780682246	-2.706910373	 1.2494685475	 0.086232
H	 2.7914697898	-0.6511615451	 2.1584063908	 0.108706
H	 2.7628837735	 0.0756113458	 0.4821590609	 0.121309
H	 0.2453663383	-0.6110855167	 2.2014221928	 0.084549
166.2577	217.152	255.8985	332.4099	374.7194	521.1511	623.7125	714.7901	763.405	827.0818	846.8131	883.9119	913.7693	981.2855	987.8264	1029.7026	1074.3541	1081.1949	1086.2516	1100.0154	1126.8372	1130.3345	1161.097	1196.6285	1241.6461	1327.4295	1339.5798	1358.9387	1383.3366	1405.4413	1410.7916	1479.6277	1486.7539	1496.5656	1516.8266	2939.7406	2967.2805	3043.0258	3062.6554	3115.0597	3122.2099	3129.5758	3176.72	3185.0659	3218.2231
CC1OCC2CC12	C[C@H]1OC[C@H]2C[C@@H]12	
InChI=1S/C6H10O/c1-4-6-2-5(6)3-7-4/h4-6H,2-3H2,1H3	InChI=1S/C6H10O/c1-4-6-2-5(6)3-7-4/h4-6H,2-3H2,1H3/t4-,5-,6+/m1/s1
