21
gdb 1291	6.28879	0.99301	0.90285	1.299	71.46	-0.2615	0.0807	0.3422	1317.5841	0.193012	-312.126356	-312.116803	-312.115859	-312.160781	33.643	
C	-0.0848740555	 1.5615188266	 0.1129863817	-0.38094
C	-0.0206127867	 0.0324573816	-0.0089528155	 0.044821
C	-1.432551569	-0.5688977532	 0.0058795819	-0.388308
C	 0.7462306122	-0.4268054702	-1.2629680219	-0.169464
C	 2.2281762396	-0.0386606564	-1.2935178261	-0.175252
C	 2.9609284905	-0.6153337635	-2.4979200317	-0.072786
O	 4.3130250615	-0.1846938233	-2.4385727854	-0.422122
H	 0.9098419091	 2.0114451712	 0.1766877141	 0.116605
H	-0.5956425239	 2.0003191816	-0.7531404594	 0.108828
H	-0.6398613086	 1.8593472063	 1.0088722959	 0.108721
H	 0.5183986954	-0.3535245329	 0.8687911826	 0.070782
H	-2.0155417393	-0.2199614516	-0.8552088988	 0.10995
H	-1.402029854	-1.6629188861	-0.0357731237	 0.10755
H	-1.9774041984	-0.2821347376	 0.9114654443	 0.10818
H	 0.664521562	-1.5201156689	-1.3379066681	 0.087157
H	 0.2419484346	-0.025143747	-2.1542791836	 0.088579
H	 2.3477671569	 1.0500167721	-1.3151990023	 0.108235
H	 2.7294544133	-0.3903273378	-0.3828621111	 0.101995
H	 2.8925976794	-1.7158416964	-2.4834338819	 0.081627
H	 2.4747897632	-0.2737347573	-3.427029563	 0.081864
H	 4.7780250279	-0.5488868171	-3.1972209879	 0.283979
60.2127	79.5857	129.3959	145.4209	220.6272	247.364	261.7037	298.4067	314.8406	409.9619	430.8096	502.5561	756.9286	819.5614	862.1182	927.1485	949.1339	965.3484	1013.5684	1020.8962	1057.5487	1077.3216	1139.833	1189.4488	1194.145	1230.4186	1240.3482	1301.6157	1307.4179	1319.8716	1352.9077	1372.0415	1395.1872	1401.063	1422.9482	1461.6908	1479.3273	1488.3374	1495.0983	1500.5078	1505.4164	1511.275	1528.9143	2955.0561	2979.9023	2992.4731	2999.7045	3021.2317	3027.4356	3029.8506	3034.6614	3081.4087	3085.4715	3091.6333	3096.5778	3108.0656	3830.6137
CC(C)CCCO	CC(C)CCCO	
InChI=1S/C6H14O/c1-6(2)4-3-5-7/h6-7H,3-5H2,1-2H3	InChI=1S/C6H14O/c1-6(2)4-3-5-7/h6-7H,3-5H2,1-2H3
