19
gdb 1862	5.51087	1.83913	1.467	0.2318	73.57	-0.2237	0.0359	0.2596	891.0964	0.172034	-273.812813	-273.805266	-273.804322	-273.844104	28.533	
C	-0.0528986714	 1.5423288329	 0.025384312	-0.402972
C	 0.0811388633	 0.0207824279	 0.0025439008	 0.053834
C	 0.9059586647	-0.5394011142	-1.1890201596	-0.258308
C	 1.5650953586	-1.7649885701	-0.6067458897	-0.162815
C	 1.4915136176	-1.8037716439	 0.7257392651	 0.337974
C	 2.071536113	-2.8360051327	 1.6400381807	-0.491837
C	 0.7572039515	-0.589297635	 1.2580059833	-0.304484
H	 0.9308935725	 2.0215836069	 0.0932522922	 0.111351
H	-0.5411334477	 1.9140026768	-0.8821498871	 0.110513
H	-0.6461967648	 1.8790031821	 0.8825720744	 0.109921
H	-0.923249342	-0.4153459856	-0.0676134812	 0.073999
H	 0.2791767065	-0.7548401609	-2.0626362879	 0.095754
H	 1.6604878537	 0.1877907781	-1.5275618436	 0.096318
H	 2.0762718116	-2.5035405402	-1.2164904968	 0.078424
H	 2.5829147556	-3.6277671195	 1.0853793337	 0.120235
H	 2.79327094	-2.3888568914	 2.3363536419	 0.121944
H	 1.29382781	-3.3010816688	 2.2596994172	 0.12138
H	 1.4698981989	 0.1160225639	 1.7142003987	 0.095452
H	 0.0335078984	-0.8376397463	 2.0445415358	 0.093316
88.8952	182.9812	237.3563	240.3147	267.5118	364.2833	420.1928	449.314	536.5907	652.9442	815.8803	834.4967	878.4196	904.4492	927.7082	939.2633	989.6968	1032.3379	1038.2606	1077.4731	1115.672	1147.9252	1153.9955	1205.1489	1237.4474	1284.9581	1304.3275	1329.3096	1355.3937	1373.2837	1409.982	1414.1289	1479.1876	1485.3414	1489.8398	1493.4015	1498.5219	1500.7482	1723.8567	2983.3426	2984.9887	3012.8302	3016.1256	3023.8065	3039.7879	3048.1761	3056.7573	3090.6613	3092.4128	3106.4759	3177.9833
CC1CC=C(C)C1	C[C@H]1CC=C(C)C1	
InChI=1S/C7H12/c1-6-3-4-7(2)5-6/h3,7H,4-5H2,1-2H3	InChI=1S/C7H12/c1-6-3-4-7(2)5-6/h3,7H,4-5H2,1-2H3/t7-/m0/s1
