14
gdb 1641	4.95658	2.02275	1.45089	1.7515	56.91	-0.2363	-0.0194	0.2169	807.0653	0.113148	-357.942023	-357.93399	-357.933046	-357.974006	28.436	
C	 0.0682330728	 1.4061793292	 0.0269870935	-0.341053
N	 0.0519318888	-0.0446300782	 0.021419787	-0.304343
C	-1.0890099211	-0.622226644	-0.0319153131	 0.289922
N	-2.3305305779	-0.0694705841	-0.1058160865	-0.548825
C	-1.1472707758	-2.1457200076	-0.0445427082	 0.390308
N	 0.0675076156	-2.7255017024	-0.0742348132	-0.525249
O	-2.2185177864	-2.7323842548	-0.0264062285	-0.386135
H	 1.1007035571	 1.7634275496	 0.0305556597	 0.125499
H	-0.4344637103	 1.8303961992	-0.8564781797	 0.116284
H	-0.4281752779	 1.824367502	 0.9182226698	 0.109708
H	-2.4776887025	 0.8945596545	 0.1343782409	 0.259312
H	-3.0943149683	-0.7219616812	-0.0014856034	 0.275167
H	 0.8754270666	-2.1217276816	-0.0538772993	 0.275666
H	 0.1461715294	-3.7269814705	-0.0504049489	 0.26374
86.1061	129.4477	198.3765	219.8601	295.5776	312.8618	326.3364	414.7196	502.4886	548.9097	603.2117	633.3856	680.6818	809.9485	825.4016	1000.1238	1100.4214	1105.706	1114.6723	1203.7459	1305.8094	1410.8159	1436.2575	1491.5923	1501.226	1581.7015	1594.5753	1736.2475	1797.4435	2962.8878	3008.704	3103.7705	3578.2738	3581.4199	3726.0296	3737.4423
CN=C(N)C(N)=O	CN=C(N)C(=O)N	
InChI=1S/C3H7N3O/c1-6-2(4)3(5)7/h1H3,(H2,4,6)(H2,5,7)	InChI=1S/C3H7N3O/c1-6-2(4)3(5)7/h1H3,(H2,4,6)(H2,5,7)
