17
gdb 4120	2.73275	1.81142	1.26962	1.0573	68.25	-0.2454	-0.0015	0.2438	994.3105	0.139744	-400.944839	-400.936142	-400.935198	-400.977986	31.401	
C	-0.3040642311	 1.2315992296	-1.373792912	-0.398928
C	 0.2445630743	-0.1106358175	-0.9231286998	 0.066477
O	 1.6479199045	-0.3051687803	-1.258515008	-0.320025
C	 2.0264960939	-0.5642425933	 0.1230737743	 0.07237
C	 3.1147009879	 0.3623107858	 0.6335429628	-0.397089
C	 0.5963628595	-0.3026741256	 0.5354815101	 0.323136
N	 0.036779448	-0.2565177442	 1.6658965236	-0.23157
O	-1.334489995	 0.0392302565	 1.5411620865	-0.393863
H	 0.2854229928	 2.0538161792	-0.9596150676	 0.122578
H	-0.2722612603	 1.2971090996	-2.4656185649	 0.128489
H	-1.3405290542	 1.3393677777	-1.0427631348	 0.137916
H	-0.3696078484	-0.9296357967	-1.3249161	 0.099706
H	 2.3266426606	-1.6145310046	 0.2490105052	 0.097105
H	 2.8166397321	 1.4087308892	 0.5289014415	 0.123953
H	 3.3144454311	 0.1577763055	 1.6900235734	 0.130447
H	 4.0375273953	 0.202899193	 0.0676283244	 0.129585
H	-1.625311061	 0.049196346	 2.4594508753	 0.309714
77.4607	145.44	156.5812	207.9695	218.4359	267.938	318.2048	373.0979	405.8056	460.3699	545.6981	597.2388	716.7116	798.1862	874.1965	877.5742	974.1595	991.5002	1057.2832	1086.3584	1089.7294	1102.7289	1145.4866	1182.2029	1267.5653	1305.4366	1343.4559	1383.1936	1397.3255	1401.6839	1413.6532	1480.8849	1486.0048	1489.6329	1494.2599	1811.1793	2997.2764	3002.9388	3041.6048	3044.5824	3116.8151	3119.975	3125.31	3130.2111	3817.2488
CC1OC(C)C1=NO	C[C@H]1O[C@@H](C)C1=NO	
InChI=1S/C5H9NO2/c1-3-5(6-7)4(2)8-3/h3-4,7H,1-2H3	InChI=1S/C5H9NO2/c1-3-5(6-7)4(2)8-3/h3-4,7H,1-2H3/t3-,4+
