14
gdb 1425	6.84248	1.35075	1.22109	1.2395	56.52	-0.2525	-0.0456	0.2069	929.0995	0.111234	-361.739999	-361.732075	-361.731131	-361.772962	26.121	
C	-0.1268681185	 1.3653397691	 0.1651891569	-0.350152
N	-0.0324714909	-0.0631777471	-0.0956647249	-0.041221
C	-0.0387422812	-0.9648843048	 1.0308367496	-0.262384
C	-1.4025158411	-1.0486949854	 1.7157769808	 0.152505
O	-1.5524755508	-1.25470699	 2.8889482769	-0.221073
C	 0.1292067945	-0.5152082149	-1.3773249251	 0.158869
O	 0.1635131804	 0.1791178349	-2.3679696954	-0.330413
H	 0.7142372244	 1.7027253966	 0.7826241146	 0.133339
H	-0.1037707355	 1.8792781143	-0.7955324017	 0.175494
H	-1.0586754631	 1.6112265805	 0.6871299818	 0.133705
H	 0.2008340141	-1.9759633024	 0.6738449281	 0.145681
H	 0.7147942223	-0.6934201412	 1.7802149772	 0.137725
H	-2.2626663827	-0.9214113066	 1.0181293409	 0.091583
H	 0.2261424381	-1.6188117532	-1.4094576596	 0.076344
60.9439	75.9368	142.2008	163.9962	310.1324	319.8694	346.6029	398.8177	452.9465	690.9409	774.0044	883.0528	1027.6919	1038.7286	1066.1515	1096.8582	1158.1874	1222.4896	1282.919	1334.75	1404.1479	1421.5571	1435.0572	1441.6244	1456.6235	1497.6047	1517.6958	1804.9179	1845.4137	2871.4334	2933.1672	3018.6583	3024.2241	3068.7097	3076.7143	3161.3209
CN(CC=O)C=O	CN(CC=O)C=O	
InChI=1S/C4H7NO2/c1-5(4-7)2-3-6/h3-4H,2H2,1H3	InChI=1S/C4H7NO2/c1-5(4-7)2-3-6/h3-4H,2H2,1H3
