15
gdb 3668	7.29174	1.95107	1.56925	2.3692	63.81	-0.2276	0.0311	0.2587	793.846	0.126068	-304.737418	-304.730148	-304.729203	-304.769128	25.553	
C	 0.0005399218	 1.515590997	 0.0949630158	-0.503284
C	 0.0112019277	 0.0307126693	-0.0686557393	 0.389766
C	 0.0053828663	-0.7728953847	-1.1904248316	-0.36818
C	 0.0220556263	-2.1051242776	-0.706294904	 0.353828
C	 0.0240681313	-3.3804500286	-1.4891860662	-0.489883
N	 0.0371870529	-2.1283804967	 0.6242838042	-0.287277
N	 0.0303290067	-0.8257233218	 0.9855758047	-0.251259
H	 0.8874046888	 1.8741126982	 0.6304389603	 0.134865
H	-0.0143357354	 1.999047203	-0.8838798957	 0.142356
H	-0.8801714487	 1.8592900588	 0.6499651458	 0.13486
H	-0.0088879845	-0.4408981247	-2.2168336809	 0.092183
H	 0.8992868177	-3.4475589084	-2.1450021883	 0.124867
H	 0.0384309744	-4.2339489021	-0.808027584	 0.137173
H	-0.8638790298	-3.4620063004	-2.1259726582	 0.124857
H	 0.0389677443	-0.5937508914	 1.9642004773	 0.265129
55.2141	96.446	184.0876	260.2006	334.0825	394.7965	481.7538	592.873	666.1673	694.0966	745.3677	802.3664	987.4749	988.9618	1013.897	1047.5298	1062.2712	1065.7864	1169.5426	1183.8206	1301.1579	1405.8306	1412.3861	1434.6877	1451.1541	1482.7883	1484.254	1487.56	1505.6413	1518.1123	1619.0336	3028.481	3033.0159	3077.413	3083.0555	3129.3544	3130.3734	3254.4896	3671.9466
CC1=CC(C)=NN1	Cc1cc(C)n[nH]1	
InChI=1S/C5H8N2/c1-4-3-5(2)7-6-4/h3H,1-2H3,(H,6,7)	InChI=1S/C5H8N2/c1-4-3-5(2)7-6-4/h3H,1-2H3,(H,6,7)
