16
gdb 4162	4.43421	1.22456	1.01599	2.1934	65.22	-0.2403	-0.004	0.2363	1112.8552	0.130248	-416.978754	-416.970551	-416.969607	-417.011832	29.605	
O	 0.0572625483	 1.3399152629	-0.1849783541	-0.420182
C	-0.0248124027	 0.0543274831	 0.3934281726	-0.047491
C	-1.3911388259	-0.5650343564	 0.0899169966	-0.091905
N	-1.6426120569	-0.602852652	-1.392827029	-0.343336
C	-1.8576306108	-2.0860106872	-1.3671671012	-0.262636
C	-1.5025384639	-2.0740249076	 0.1031262935	 0.401009
N	-1.3229980145	-2.9159801971	 1.0280012186	-0.232199
O	-1.5143265136	-4.2267603183	 0.5576289674	-0.390671
H	-0.1341231816	 1.2033845515	-1.1227453172	 0.286065
H	 0.7660949931	-0.6122092058	 0.0166148649	 0.0873
H	 0.1144297199	 0.1673576136	 1.4728022923	 0.116233
H	-2.1720919568	-0.0452662673	 0.6583414323	 0.095267
H	-2.4807143356	-0.0983255181	-1.657047928	 0.229806
H	-2.8836205686	-2.4162043217	-1.5707458922	 0.126671
H	-1.1797458005	-2.6431441577	-2.0225121338	 0.136036
H	-1.3480254097	-4.7538670319	 1.3466939273	 0.310032
86.3916	92.4084	130.1999	212.9734	274.239	337.9964	383.5172	466.6016	495.4257	508.3788	599.4676	716.2182	802.6918	852.2516	918.4072	969.5961	984.7382	1008.1254	1036.2617	1084.1364	1104.725	1123.1869	1177.9387	1212.9796	1246.337	1294.9493	1334.9629	1370.0118	1388.536	1411.5601	1429.0547	1488.6849	1502.0545	1800.5972	2987.3477	3028.1589	3033.8639	3072.3942	3088.8431	3543.6008	3755.8142	3816.4225
OCC1NCC1=NO	OC[C@H]1NCC1=NO	
InChI=1S/C4H8N2O2/c7-2-4-3(6-8)1-5-4/h4-5,7-8H,1-2H2	InChI=1S/C4H8N2O2/c7-2-4-3(6-8)1-5-4/h4-5,7-8H,1-2H2/t4-/m1/s1
