11
gdb 1160	3.45021	2.32903	1.91981	2.7538	51.46	-0.3385	-0.0345	0.304	692.7131	0.076558	-339.445855	-339.438488	-339.437544	-339.476973	25.572	
C	-0.0018875477	 1.5374812524	 0.0395556188	-0.39275
C	 0.0046445566	 0.0003479853	 0.0064656016	 0.074569
O	 0.6931569014	-0.4313343882	 1.1614149485	-0.406927
C	-1.3872916203	-0.5176430529	 0.0027314367	 0.277593
N	-2.467312508	-0.9247092944	 0.0376519111	-0.31122
C	 0.6873740384	-0.4824929593	-1.2209364207	 0.277563
N	 1.2503586251	-0.8617584733	-2.1550531978	-0.311215
H	 1.0310402861	 1.8895065646	 0.0454415713	 0.160904
H	-0.5225938641	 1.9382510086	-0.8314994024	 0.159387
H	-0.5047906387	 1.8634583278	 0.9515447864	 0.16091
H	 0.7182591312	-1.3964014205	 1.1753392965	 0.311187
134.8813	178.7681	193.924	228.7282	278.6317	353.8181	383.5334	491.1563	532.7484	583.1308	620.8068	691.5227	922.1103	955.3899	1053.6441	1173.0487	1192.8861	1363.6901	1405.342	1477.6896	1485.5062	2360.6252	2364.1766	3067.1157	3158.8835	3160.0265	3793.1337
CC(O)(C#N)C#N	CC(O)(C#N)C#N	
InChI=1S/C4H4N2O/c1-4(7,2-5)3-6/h7H,1H3	InChI=1S/C4H4N2O/c1-4(7,2-5)3-6/h7H,1H3
