16
gdb 1886	5.46651	2.11473	1.68252	1.1078	61.96	-0.2397	0.0312	0.2709	778.6217	0.137115	-325.81005	-325.802785	-325.801841	-325.841588	25.863	
C	-0.0037202612	 1.5017242103	 0.0712883617	-0.385659
C	-0.0066145107	-0.0233694619	-0.0252038537	 0.030252
C	 0.8538385313	-0.5844915973	-1.1929676515	-0.120658
O	 1.8011609524	-1.4609944863	-0.5477821001	-0.25437
C	 1.5374893496	-1.378650803	 0.7882926124	 0.404565
C	 2.4321430057	-2.2019921233	 1.6502731231	-0.47078
N	 0.5828106981	-0.637300403	 1.1779968524	-0.311309
H	 1.0202674451	 1.8796327303	 0.1606765211	 0.117666
H	-0.4608779756	 1.950433639	-0.8172667324	 0.110391
H	-0.563931241	 1.8282309618	 0.9512558873	 0.130318
H	-1.0451395607	-0.3665162565	-0.1110233047	 0.085463
H	 0.2835488295	-1.168689223	-1.9202595239	 0.114823
H	 1.410997598	 0.1951279494	-1.7237695329	 0.110642
H	 2.3547474358	-3.2586780379	 1.3754042816	 0.144117
H	 3.4758315733	-1.9052503715	 1.5066402299	 0.143649
H	 2.1543817105	-2.0743524472	 2.6957845598	 0.15089
62.121	146.3139	187.2438	234.2039	299.6474	381.6296	434.575	619.2028	662.1767	711.6912	850.4728	901.2708	937.245	943.1344	1014.6484	1030.6061	1066.2721	1109.6102	1124.387	1162.1609	1226.2997	1256.7871	1319.4873	1363.2412	1380.8456	1404.9102	1416.5121	1475.7505	1477.3053	1487.9856	1497.3474	1522.7022	1742.7743	3019.9135	3032.9322	3041.4126	3050.7919	3091.9242	3103.0397	3107.6049	3121.7024	3166.6562
CC1COC(C)=N1	C[C@H]1COC(=N1)C	
InChI=1S/C5H9NO/c1-4-3-7-5(2)6-4/h4H,3H2,1-2H3	InChI=1S/C5H9NO/c1-4-3-7-5(2)6-4/h4H,3H2,1-2H3/t4-/m0/s1
