17
gdb 3539	5.67802	2.90687	2.55661	0.1455	67.48	-0.2854	0.1043	0.3897	609.5046	0.152	-272.550818	-272.545676	-272.544732	-272.579337	21.687	
C	-0.0704036754	 1.5670608934	 0.009982182	-0.235699
C	 1.4472495954	 1.2716398254	-0.0053459995	-0.049455
C	 1.2197825285	 0.1193130801	 1.0271987133	 0.014847
C	 2.2181981755	-1.0060794003	 0.753737232	-0.239014
C	 2.2040710402	-0.997725248	-0.8027733983	-0.239014
C	 1.2010212038	 0.1304895624	-1.0459721241	 0.014847
C	 0.0437573796	 0.0250961613	 0.0006303475	-0.049455
H	-0.4744046101	 2.0262799226	 0.9173669339	 0.085112
H	-0.4907116395	 2.035997694	-0.8849402908	 0.085111
H	 2.2707113913	 1.9896966376	-0.0089230585	 0.060437
H	 0.99274171	 0.379903864	 2.0633572096	 0.056377
H	 3.2082584655	-0.7904644365	 1.1686868567	 0.094774
H	 1.889360058	-1.9620070492	 1.1743946839	 0.094773
H	 3.1864691756	-0.7776916321	-1.233312761	 0.094773
H	 1.8674415565	-1.9490890347	-1.2276024574	 0.094774
H	 0.9552961841	 0.4022199037	-2.0749819829	 0.056377
H	-0.7664727946	-0.7078593195	 0.0040071536	 0.060436
238.6515	357.0718	415.9738	663.3236	722.2332	737.2459	807.9262	822.8327	869.5544	887.1464	911.3632	929.5532	958.7029	966.925	992.6275	1013.5298	1030.2846	1060.5891	1083.8968	1110.2453	1111.927	1134.1338	1194.4667	1205.6422	1235.7882	1241.6127	1251.0389	1265.8607	1271.0594	1286.9218	1318.1678	1375.7045	1487.5449	1509.4587	1514.152	3038.8238	3039.3648	3048.5095	3071.1421	3078.7338	3079.3547	3090.4039	3091.0552	3098.4604	3101.2523
C1C2C3CCC2C13	C1[C@H]2[C@@H]3CC[C@H]2[C@H]13	
InChI=1S/C7H10/c1-2-5-6-3-7(5)4(1)6/h4-7H,1-3H2	InChI=1S/C7H10/c1-2-5-6-3-7(5)4(1)6/h4-7H,1-3H2/t4-,5+,6-,7+
