12
gdb 40	26.59789	3.79186	3.53779	1.3402	38.61	-0.2619	0.081	0.3429	382.8628	0.108241	-194.261089	-194.255495	-194.254551	-194.28893	18.431	
C	-0.0037901202	 1.5219678964	 0.010279958	-0.382505
C	-0.0358937194	-0.0077825368	 0.002256712	-0.150134
C	-1.452190163	-0.5665371088	 0.0128438557	-0.04934
O	-1.3679978502	-1.9839460351	 0.0045360642	-0.421745
H	 1.0247757648	 1.8941123069	 0.0023979304	 0.116894
H	-0.5128667381	 1.9376461379	-0.8665388825	 0.11449
H	-0.4958407988	 1.9280134358	 0.9012172128	 0.114496
H	 0.4814078416	-0.3953055191	-0.8831606436	 0.105745
H	 0.4982858852	-0.4048625622	 0.8733034811	 0.105758
H	-1.9873421975	-0.2039949369	 0.9066606242	 0.081071
H	-2.0043148492	-0.1945947268	-0.8666646015	 0.081074
H	-2.2617181851	-2.3382429813	 0.0103474791	 0.284196
125.5694	234.2295	260.7213	271.8116	456.5358	764.3742	887.7992	900.0002	1041.5213	1066.2338	1104.8639	1188.8232	1262.9068	1266.3266	1317.4226	1349.5602	1412.8494	1465.0711	1492.0347	1501.4128	1508.2133	1528.7837	2953.4704	2977.5773	3030.6996	3036.9994	3069.6927	3098.2825	3107.0282	3831.7024
CCCO	CCCO	
InChI=1S/C3H8O/c1-2-3-4/h4H,2-3H2,1H3	InChI=1S/C3H8O/c1-2-3-4/h4H,2-3H2,1H3
