17
gdb 1148	3.47856	2.53836	1.94725	2.4283	60.54	-0.2293	0.0617	0.2909	740.7324	0.14533	-346.842529	-346.834332	-346.833388	-346.873856	31.223	
C	-0.0920038171	 1.5267624416	-0.0989958124	-0.443598
C	 0.045145877	 0.0302194879	 0.0437068289	 0.3088
O	-1.1177217849	-0.6758162964	-0.34529495	-0.469856
C	 1.3707851117	-0.6748941797	-0.1891637252	-0.413249
C	 0.7445300188	-0.6495841926	 1.1995500511	 0.419639
C	 1.398847211	 0.1076388432	 2.3278376435	-0.440954
O	 0.1556922976	-1.8285808287	 1.6652814235	-0.477206
H	 0.7956492106	 2.0496581967	 0.2647651863	 0.120899
H	-0.2290634347	 1.8006493054	-1.1522644937	 0.110184
H	-0.9608733491	 1.8889313963	 0.4595798301	 0.128514
H	-1.0838410815	-0.8186327777	-1.2969953657	 0.289118
H	 1.3427220533	-1.6266230285	-0.7104459763	 0.107238
H	 2.2476167109	-0.0659090751	-0.3865687651	 0.107529
H	 1.9356403437	 0.9901491347	 1.972362938	 0.111259
H	 0.6546069114	 0.4213928814	 3.0666905622	 0.123087
H	 2.1186436861	-0.5449084451	 2.8324530264	 0.130162
H	-0.6242920349	-1.9708069335	 1.1103068083	 0.288433
173.3823	189.7888	206.7582	245.1548	257.7747	312.825	377.8324	389.4222	432.6873	468.4189	488.9347	553.5088	691.2599	721.9818	868.2459	901.7483	928.0284	966.3481	1001.2746	1017.9031	1083.308	1105.0269	1170.5005	1218.3848	1261.5567	1309.7747	1361.4657	1402.3723	1416.0701	1436.6927	1471.3584	1477.7394	1491.416	1492.6731	1516.8888	3027.8804	3040.9852	3090.9594	3103.793	3118.1059	3120.2682	3129.7858	3212.392	3733.6757	3806.1934
CC1(O)CC1(C)O	C[C@@]1(O)C[C@]1(C)O	
InChI=1S/C5H10O2/c1-4(6)3-5(4,2)7/h6-7H,3H2,1-2H3	InChI=1S/C5H10O2/c1-4(6)3-5(4,2)7/h6-7H,3H2,1-2H3/t4-,5+
