14
gdb 2448	5.97452	2.52766	2.07483	2.9826	57.78	-0.2483	0.0256	0.274	637.9989	0.115352	-324.581067	-324.575415	-324.574471	-324.610507	21.967	
N	-0.0042322403	 1.0468175678	-0.6027874584	-0.532006
C	-0.0236294858	-0.052921637	 0.0133194285	 0.39763
C	-1.2630582119	-0.8974787326	 0.2780159763	-0.31208
C	-0.7205300852	-2.1785384978	 0.8799989056	-0.06843
C	 0.2889666551	-2.9595528822	 0.0563883123	-0.3131
C	 0.7523748084	-1.9407367396	 1.0560790461	 0.096274
O	 1.0858498281	-0.6648889429	 0.5444312937	-0.2336
H	 0.9472003338	 1.4142803736	-0.6534610563	 0.223789
H	-1.9148578725	-0.3702425243	 0.9820063214	 0.137546
H	-1.828368179	-1.0334518686	-0.6473909939	 0.13984
H	-1.3008908687	-2.7010766305	 1.6297701098	 0.101258
H	 0.4279125582	-4.006072943	 0.3045738664	 0.122248
H	 0.4031321474	-2.720756691	-0.9965858734	 0.128993
H	 1.3286634223	-2.1985308419	 1.9352298218	 0.111639
102.1029	299.2904	430.5106	441.5247	528.8909	661.387	694.6299	781.8088	811.6818	838.428	891.9699	905.8689	944.9209	1001.196	1020.5039	1042.4394	1067.7939	1090.0504	1103.9959	1158.3772	1191.264	1204.3796	1264.6764	1295.4007	1363.2198	1391.7371	1467.3358	1479.9726	1778.7231	3061.247	3103.4251	3128.6698	3189.0116	3199.4378	3221.2736	3476.7044
N=C1CC2CC2O1	[NH][C]1C[C@H]2C[C@H]2O1	
InChI=1S/C5H7NO/c6-5-2-3-1-4(3)7-5/h3-4,6H,1-2H2	InChI=1S/C5H7NO/c6-5-2-3-1-4(3)7-5/h3-4,6H,1-2H2/t3-,4-/m1/s1
