15
gdb 2832	5.08642	1.69035	1.41021	4.7201	62.24	-0.2761	0.0162	0.2923	868.4463	0.125409	-304.689816	-304.682458	-304.681514	-304.721526	26.072	
C	 0.2083585348	 1.5155210612	 0.1002487589	-0.381785
C	-0.2502059758	 0.0777243903	-0.1665655448	-0.190693
C	 0.4884432079	-0.5421798362	-1.3286960111	 0.011366
N	 1.8266809191	-1.0708306061	-1.0580451976	-0.310097
C	 0.7529342524	-2.0137422628	-1.4383043854	-0.204033
C	 0.3155947206	-2.943304622	-0.4243900477	 0.330472
N	-0.0620559517	-3.6958654928	 0.3679599597	-0.33518
H	 1.2771135326	 1.5419603374	 0.3334638559	 0.13329
H	 0.035916616	 2.1587808845	-0.7699842865	 0.112388
H	-0.334203658	 1.947668082	 0.9456708184	 0.121715
H	-0.090548681	-0.5386019208	 0.7236542048	 0.130353
H	-1.3257688848	 0.0553038333	-0.3812200435	 0.108425
H	 0.3368116677	-0.0460047327	-2.2876702355	 0.097621
H	 2.4505280266	-0.9368355397	-1.8493651671	 0.2453
H	 0.7696585136	-2.4415812455	-2.4372203983	 0.13086
80.5079	114.7122	200.7333	240.3238	260.7003	377.7432	442.5532	574.153	623.9257	767.875	787.4167	838.8272	899.3083	942.6875	956.8339	1034.4827	1047.6754	1103.4872	1144.2985	1202.4386	1233.1156	1251.3155	1307.1175	1345.8532	1405.3322	1410.6186	1462.7695	1477.5451	1499.6428	1508.314	2359.3742	3035.3592	3037.6369	3082.2254	3103.0177	3112.3848	3117.8053	3147.0269	3511.0798
CCC1NC1C#N	CC[C@H]1N[C@H]1C#N	
InChI=1S/C5H8N2/c1-2-4-5(3-6)7-4/h4-5,7H,2H2,1H3	InChI=1S/C5H8N2/c1-2-4-5(3-6)7-4/h4-5,7H,2H2,1H3/t4-,5+/m1/s1
