12
gdb 1072	7.98132	2.11068	1.687	0.1961	51.81	-0.2164	0.0031	0.2194	693.5577	0.091093	-360.529236	-360.523085	-360.52214	-360.559696	21.379	
C	 0.0006310741	 1.4138403976	-0.0218024374	-0.237002
O	 0.0046816436	-0.0123875603	-0.0038206949	-0.269011
C	 0.5974100468	-0.6164088835	-1.0431658552	 0.352746
C	 0.7213730297	-1.9563298242	-1.245113726	-0.15827
O	 1.3955475573	-2.1188192707	-2.4332378656	-0.136426
C	 1.6318673408	-0.8713080609	-2.865464883	 0.085923
N	 1.1857149362	 0.0681233254	-2.0905783321	-0.339789
H	 1.0195928451	 1.8131269592	-0.0258047346	 0.13497
H	-0.5292459442	 1.7976498783	-0.8991522419	 0.134786
H	-0.5163793717	 1.7171905723	 0.8895756675	 0.130807
H	 0.4270185881	-2.8418724965	-0.7143428021	 0.148201
H	 2.1603048942	-0.7659507066	-3.7996361748	 0.153064
67.4228	164.1442	246.4696	331.6574	500.7466	639.6544	666.7923	682.5746	737.4791	829.2792	936.3412	982.4525	1077.1505	1086.1593	1166.5584	1179.0868	1202.0471	1251.9382	1336.391	1351.0135	1474.0203	1482.501	1501.2962	1551.4177	1659.2241	3036.0547	3104.5724	3145.529	3277.5508	3317.8336
COC1=COC=N1	COc1cocn1	
InChI=1S/C4H5NO2/c1-6-4-2-7-3-5-4/h2-3H,1H3	InChI=1S/C4H5NO2/c1-6-4-2-7-3-5-4/h2-3H,1H3
