18
gdb 4840	4.85597	1.30974	1.10886	1.2903	76.94	-0.1781	0.0524	0.2305	1116.9229	0.154862	-344.01757	-344.00904	-344.008096	-344.050923	30.987	
C	-0.7723780378	 0.8748841876	 0.1401602226	-0.322786
N	 0.4856956534	 0.1677926221	-0.1339894115	-0.38823
C	 1.0622254302	-0.4922315882	 0.9691515205	 0.276635
C	 2.0172212916	-0.1295578936	 1.8925202629	-0.214133
C	 2.2147451503	-1.2454445816	 2.758411901	-0.211994
C	 1.3709117291	-2.255346255	 2.3555185708	 0.300212
C	 1.1515368308	-3.6282882683	 2.8982882664	-0.50415
N	 0.6761953836	-1.7816846127	 1.2633221774	-0.307803
H	-0.6821461037	 1.6542431708	 0.912528173	 0.108973
H	-1.1351637859	 1.3337968178	-0.7845410159	 0.115697
H	-1.5261928404	 0.1572154984	 0.4767025442	 0.123487
H	 1.1593133759	 0.8063712325	-0.5383276151	 0.231588
H	 2.5103154774	 0.8296077208	 1.9447249466	 0.078992
H	 2.8944119321	-1.3001811371	 3.5959897107	 0.08338
H	 0.1188164945	-3.7829214233	 3.2368712794	 0.122171
H	 1.3707594422	-4.4106328185	 2.1598568238	 0.121478
H	 1.8071974551	-3.7950928499	 3.7562484818	 0.134681
H	 0.0454072214	-2.3143111718	 0.6886413414	 0.251799
52.7457	118.8197	138.6872	174.6725	235.1302	282.3504	392.4957	426.3342	489.365	601.7567	641.7856	679.7134	688.6514	770.1	780.8125	814.8193	976.4939	1001.965	1005.2254	1054.4446	1063.1232	1068.6498	1141.527	1159.1079	1214.7617	1262.5898	1301.5795	1402.8717	1417.8064	1436.0824	1450.2244	1479.5761	1487.0492	1494.9442	1503.7892	1514.1951	1557.4563	1638.2492	2983.746	3010.3363	3051.4561	3074.0657	3111.8759	3118.9555	3232.9802	3248.4584	3555.0652	3669.5318
CNC1=CC=C(C)N1	CNc1ccc(C)[nH]1	
InChI=1S/C6H10N2/c1-5-3-4-6(7-2)8-5/h3-4,7-8H,1-2H3	InChI=1S/C6H10N2/c1-5-3-4-6(7-2)8-5/h3-4,7-8H,1-2H3
