13
gdb 96	9.93129	4.56362	3.63704	1.6826	45.72	-0.241	0.0915	0.3325	407.6909	0.11459	-232.33123	-232.325877	-232.324933	-232.359589	18.582	
C	-0.3230822808	 1.5375145075	 0.0194762369	-0.395782
C	 0.1184721413	 0.0890017219	-0.0052314017	 0.182768
C	 0.8748928442	-0.4376330311	-1.2472173751	-0.282996
C	 1.9784104752	-0.8065748268	-0.2374035623	-0.057242
O	 1.2734492559	-0.1541910836	 0.8379403993	-0.291094
H	 0.4921198486	 2.196587947	-0.2952766446	 0.117742
H	-1.1761583512	 1.6892349026	-0.6513480789	 0.114046
H	-0.6277696303	 1.8274791176	 1.0301320522	 0.127228
H	-0.7141020036	-0.563891872	 0.2959730535	 0.070537
H	 0.4103331433	-1.2626970606	-1.7891003126	 0.107184
H	 1.1556081097	 0.3459626897	-1.9545951896	 0.107549
H	 2.0950101245	-1.8834976393	-0.0560608301	 0.097623
H	 2.9697034432	-0.3692414729	-0.4040800871	 0.102437
92.8534	230.2591	329.4329	431.1083	710.8128	798.9909	878.9473	884.5652	939.0964	973.2483	1028.0336	1093.8916	1125.1665	1161.0968	1187.7522	1221.9537	1257.0758	1294.2947	1364.0547	1386.6826	1408.5729	1481.5062	1487.9626	1496.8505	1533.0916	2988.6605	3008.824	3031.6785	3052.4145	3074.2149	3103.8988	3111.1782	3130.9722
CC1CCO1	C[C@H]1CCO1	
InChI=1S/C4H8O/c1-4-2-3-5-4/h4H,2-3H2,1H3	InChI=1S/C4H8O/c1-4-2-3-5-4/h4H,2-3H2,1H3/t4-/m0/s1
