14
gdb 300	5.24096	3.07084	2.60289	1.9707	49.85	-0.2427	0.0794	0.3221	557.5787	0.117602	-307.546144	-307.539271	-307.538327	-307.575926	25.546	
C	-0.0333707327	 1.5500530711	 0.0190521557	-0.443355
C	 0.0042792903	 0.0406343628	 0.0379351584	 0.388015
O	-1.1724233515	-0.5879501986	-0.4029079303	-0.463749
C	 1.3108437302	-0.6930620845	-0.2203088195	-0.386445
C	 0.6719848675	-0.6875985922	 1.1576595639	 0.078421
O	 1.2337904963	 0.0771982715	 2.1829523149	-0.422188
H	 0.8525333266	 1.9684792411	 0.5000965157	 0.132167
H	-0.0809762325	 1.926064244	-1.0102145658	 0.102526
H	-0.9179639698	 1.9083475991	 0.5546282511	 0.127677
H	-1.2584422049	-0.4165852411	-1.3474779342	 0.279169
H	 1.2712394011	-1.6142506426	-0.7912219123	 0.111058
H	 2.2052805976	-0.093093561	-0.3540175184	 0.110322
H	 0.1818061086	-1.6082120555	 1.472229999	 0.097664
H	 2.0527239332	-0.3499621942	 2.4544666016	 0.288718
196.9526	219.4378	250.1521	293.2601	308.29	396.7965	407.3655	467.3807	512.3921	705.0125	820.0474	908.5159	912.5524	966.2368	1016.8423	1029.3215	1089.3035	1104.1352	1177.249	1247.7882	1276.043	1314.1689	1359.5944	1412.7596	1417.5298	1481.3468	1484.8252	1519.104	3029.2675	3094.7755	3113.2751	3128.0841	3137.9706	3224.1175	3791.2807	3808.0906
CC1(O)CC1O	C[C@@]1(O)C[C@H]1O	
InChI=1S/C4H8O2/c1-4(6)2-3(4)5/h3,5-6H,2H2,1H3	InChI=1S/C4H8O2/c1-4(6)2-3(4)5/h3,5-6H,2H2,1H3/t3-,4-/m1/s1
