10
gdb 1010	9.64623	2.07877	1.71022	1.4875	58.76	-0.2403	-0.039	0.2013	664.2358	0.067428	-322.169697	-322.16418	-322.163236	-322.198917	20.134	
C	 0.096912817	-1.1522397768	-0.0049016027	-0.366324
C	 0.0045850253	 0.0466975801	 0.0027807309	 0.272053
C	-0.0982484074	 1.4530590548	 0.0117214826	 0.2208
N	-1.1736909658	 2.1883332131	 0.0303090127	-0.304396
C	-0.7043695486	 3.48797066	 0.0309516946	-0.115021
C	 0.6519457636	 3.4723513155	 0.0125589221	-0.034348
O	 1.0598778029	 2.1758242674	 0.0000784343	-0.161633
H	 0.171883249	-2.2117179091	-0.0115996499	 0.206202
H	-1.3728989773	 4.3337530902	 0.0445529313	 0.130454
H	 1.4244525512	 4.2217993746	 0.0061844341	 0.152213
169.379	170.7609	444.8933	534.0776	603.1313	612.3771	627.9651	692.2241	748.4326	777.8014	871.6134	934.2212	952.4557	1118.1695	1143.7495	1165.2477	1239.7655	1378.2374	1521.5685	1575.2019	2245.8765	3266.3701	3301.0858	3502.7974
C#CC1=NC=CO1	C#Cc1ncco1	
InChI=1S/C5H3NO/c1-2-5-6-3-4-7-5/h1,3-4H	InChI=1S/C5H3NO/c1-2-5-6-3-4-7-5/h1,3-4H
