14
gdb 625	7.09242	2.32143	1.99737	1.0353	49.8	-0.25	0.079	0.329	634.7594	0.11882	-307.536915	-307.530074	-307.52913	-307.567447	24.284	
O	-0.0479079862	 1.2678994264	-0.4928569385	-0.424241
C	 0.0022832554	-0.0066189674	 0.1407112656	-0.091824
C	-1.3850693313	-0.5903009194	 0.1237913921	-0.000497
C	-1.9016744256	-1.2517008506	-1.1395711885	-0.314638
C	-1.586950239	-2.0777183667	 0.0804538081	 0.09125
O	-0.439640489	-2.8814629281	 0.1012006014	-0.418826
H	 0.8286222306	 1.659330408	-0.4331829472	 0.283115
H	 0.6927721104	-0.6882423735	-0.3734783695	 0.096829
H	 0.3495604619	 0.086194643	 1.1821660616	 0.086192
H	-2.1092500994	-0.0275635379	 0.7055773276	 0.091486
H	-2.9368524981	-1.1059544684	-1.4276916767	 0.110666
H	-1.2021766115	-1.3183296993	-1.966555011	 0.116588
H	-2.4255521128	-2.4786321486	 0.6498921235	 0.085737
H	-0.5852161655	-3.6167486376	-0.5027687586	 0.288161
77.5217	174.7073	252.5351	277.9736	297.7708	386.4735	468.6939	579.4065	768.166	833.986	885.3517	923.6692	987.6617	1042.4776	1062.5403	1069.2599	1132.9392	1168.2589	1179.0325	1235.1771	1257.0932	1268.1059	1305.4282	1376.9211	1423.0015	1466.8673	1489.799	1524.3991	2974.0836	3030.0313	3095.7931	3131.7531	3152.914	3220.8036	3809.5676	3825.7369
OCC1CC1O	OC[C@H]1C[C@H]1O	
InChI=1S/C4H8O2/c5-2-3-1-4(3)6/h3-6H,1-2H2	InChI=1S/C4H8O2/c5-2-3-1-4(3)6/h3-6H,1-2H2/t3-,4-/m1/s1
