13
gdb 3784	7.86683	2.00312	1.62499	4.0423	56.14	-0.2023	0.007	0.2093	729.4535	0.10403	-336.805704	-336.799304	-336.79836	-336.836067	22.928	
C	 0.0446056821	 1.4025660377	 0.1260721033	-0.325827
N	-0.0277600238	 0.0016721814	-0.2409155583	-0.366959
C	-1.2365763667	-0.6524941346	-0.1099037875	 0.373832
C	-2.5259516961	-0.1589065472	-0.0773937339	-0.177812
N	-3.2859175062	-1.2877004473	 0.0099963582	-0.148916
N	-2.5394598585	-2.3924917284	 0.0403111153	-0.114401
N	-1.2905396731	-2.0146220333	-0.0307302428	-0.274243
H	 1.0762903223	 1.7462824713	 0.0252195937	 0.130485
H	-0.5685915288	 2.0006577046	-0.5578237871	 0.129493
H	-0.2959789868	 1.607895095	 1.1539313734	 0.111996
H	 0.7404497693	-0.5671419156	 0.0847608673	 0.247436
H	-2.9472896164	 0.8295451752	-0.1108625744	 0.135431
H	-4.2884834375	-1.3686858988	 0.0577435126	 0.279483
96.3618	175.5172	211.9432	345.9515	450.1419	534.3384	565.3169	674.3674	700.4175	735.431	751.2645	986.9222	1020.3402	1063.929	1110.8101	1140.0894	1160.1312	1168.9079	1281.5782	1312.3008	1358.5733	1457.4305	1461.7462	1486.163	1516.6968	1541.018	1640.0376	2973.0846	3056.8769	3121.9616	3299.0077	3602.2443	3663.0091
CNC1=CNN=N1	CNc1c[nH]nn1	
InChI=1S/C3H6N4/c1-4-3-2-5-7-6-3/h2H,1H3,(H2,4,5,6,7)	InChI=1S/C3H6N4/c1-4-3-2-5-7-6-3/h2H,1H3,(H2,4,5,6,7)
