14
gdb 4478	3.61312	1.81145	1.2157	1.6176	60.53	-0.178	0.0565	0.2345	931.379	0.107576	-415.90902	-415.901174	-415.90023	-415.940818	28.797	
C	-0.0851209244	 1.5500523705	 0.1131401576	-0.513265
C	 0.0079710244	 0.0708856365	-0.0010093724	 0.204167
C	 0.0772890889	-0.7760757624	-1.0695669519	 0.272199
O	 0.0766108076	-0.4276158254	-2.3786124025	-0.442833
N	 0.1530343825	-2.1002025796	-0.690931181	-0.447134
C	 0.1294985182	-2.056712829	 0.6180091393	 0.441327
O	 0.1809664321	-3.106188894	 1.4562822169	-0.42513
N	 0.0442591472	-0.8025443254	 1.1052954779	-0.362221
H	 0.7657215996	 1.9889387079	 0.6515047335	 0.120872
H	-0.0959629897	 1.9816188858	-0.890488185	 0.151674
H	-0.9999261906	 1.8799498641	 0.6237144388	 0.120868
H	 0.1353265626	-1.2495527089	-2.8780639128	 0.298252
H	 0.238351771	-3.8945905496	 0.9030170812	 0.313582
H	 0.0131311907	-0.5482091604	 2.0774405203	 0.267642
130.6814	179.5908	239.6837	249.0734	305.7653	320.7904	325.8723	385.4472	449.7007	537.3119	624.1992	658.0716	683.4452	730.1733	828.9073	986.1934	1067.7346	1067.7707	1132.4151	1186.9154	1244.2366	1279.3723	1355.9641	1416.3864	1452.0363	1480.0187	1498.2201	1575.4383	1627.26	1719.3098	3003.3443	3041.1562	3123.1685	3677.9306	3814.3191	3822.3562
CC1=C(O)N=C(O)N1	Cc1c(O)nc(O)[nH]1	
InChI=1S/C4H6N2O2/c1-2-3(7)6-4(8)5-2/h7H,1H3,(H2,5,6,8)	InChI=1S/C4H6N2O2/c1-2-3(7)6-4(8)5-2/h7H,1H3,(H2,5,6,8)
