13
gdb 4812	4.7268	1.47296	1.13184	1.049	56.02	-0.225	-0.0023	0.2227	968.4501	0.095457	-435.760401	-435.752905	-435.751961	-435.792934	26.39	
O	 0.2216356168	 0.9786366742	-0.778870142	-0.417648
C	-0.0777376919	 0.1454659787	 0.312327537	-0.142236
C	-1.4335707249	-0.4695721366	 0.1660994654	 0.38395
N	-2.1798646428	-0.4055849197	-0.8961019867	-0.415628
C	-3.305032165	-1.1397291234	-0.567457746	 0.334817
O	-4.3219954141	-1.3009376854	-1.4309308463	-0.426417
C	-3.1839557835	-1.621124314	 0.6935897704	-0.157139
O	-1.9605402199	-1.1811320413	 1.1699904511	-0.173335
H	-0.414044067	 0.7694476972	-1.4754696169	 0.300526
H	 0.6676077731	-0.6608671038	 0.4186485831	 0.120954
H	-0.0401976484	 0.7300566278	 1.2417563872	 0.130979
H	-4.0885872251	-0.8219877282	-2.2349553453	 0.308935
H	-3.7867491873	-2.2172571154	 1.351976039	 0.152243
42.4035	162.9482	193.9673	222.8272	324.0657	363.5551	407.1898	480.7549	643.3643	659.2171	676.3637	726.8863	769.2285	1008.3221	1031.8511	1040.4971	1093.2325	1120.9195	1174.0208	1234.9324	1268.1772	1308.4275	1364.3411	1399.1847	1476.1035	1509.8727	1605.3081	1701.8346	2965.4413	3025.8753	3321.0133	3765.8516	3812.7235
OCC1=NC(O)=CO1	OCc1nc(O)co1	
InChI=1S/C4H5NO3/c6-1-4-5-3(7)2-8-4/h2,6-7H,1H2	InChI=1S/C4H5NO3/c6-1-4-5-3(7)2-8-4/h2,6-7H,1H2
