12
gdb 1850	6.38801	2.27123	1.71103	2.2234	51.48	-0.2707	-0.0211	0.2496	690.0922	0.090271	-360.575277	-360.569143	-360.568199	-360.605281	21.917	
C	 0.0443909569	 1.4633389772	 0.0040519006	-0.476465
C	-0.0586664027	-0.0182156463	-0.0180611449	 0.413896
N	-1.0861808303	-0.720559613	-0.2722238503	-0.285133
C	-0.6575150796	-2.1090674605	-0.1623254022	-0.313934
C	 0.8204080477	-2.04889859	 0.2055561256	 0.406767
O	 1.6290833141	-2.8971084195	 0.4089010268	-0.308113
O	 1.1177899158	-0.6903943797	 0.2764186193	-0.228629
H	 0.7933928813	 1.8017328276	-0.7187712096	 0.155901
H	-0.925070812	 1.8976196297	-0.238476117	 0.159362
H	 0.3672050481	 1.8057186897	 0.9922641678	 0.155899
H	-1.2233343909	-2.6475722921	 0.6056700769	 0.160223
H	-0.7976681585	-2.6514559032	-1.1036715431	 0.160227
148.844	165.8206	258.5461	304.1358	510.0025	528.7468	627.2413	635.2554	718.7889	850.753	923.1781	989.0996	990.9112	1066.074	1070.1063	1133.4813	1186.899	1261.2086	1316.7922	1414.8879	1444.4702	1472.6581	1473.4453	1742.2399	1922.1273	3051.1556	3053.87	3087.5386	3110.2689	3165.7074
CC1=NCC(=O)O1	CC1=NCC(=O)O1	
InChI=1S/C4H5NO2/c1-3-5-2-4(6)7-3/h2H2,1H3	InChI=1S/C4H5NO2/c1-3-5-2-4(6)7-3/h2H2,1H3
