8
gdb 58	10.68423	4.3198	3.07993	5.1815	38.31	-0.2739	-0.0438	0.2301	384.5574	0.056619	-242.19573	-242.190591	-242.189646	-242.223513	17.465	
N	-0.0523210805	 1.3499176854	 0.155355382	-0.534734
C	 0.08549378	-0.0147695132	 0.0266888965	 0.263696
N	 1.1455521531	-0.7199390588	-0.039660367	-0.477439
C	-1.1942655646	-0.7115208834	 0.0180215086	 0.296468
N	-2.227476104	-1.2279054271	 0.0013214838	-0.310088
H	 0.7547446863	 1.9199873666	-0.0441133394	 0.26413
H	-0.9445852732	 1.7660047309	-0.0593229277	 0.276424
H	 1.9831242928	-0.1341550004	-0.0287855067	 0.221544
205.4397	297.0221	370.9743	419.3024	474.1965	618.7444	716.9207	796.963	866.1836	1100.1326	1121.2345	1399.7521	1636.7105	1713.4666	2364.8891	3460.7443	3585.4859	3704.6225
NC(=N)C#N	NC(=N)C#N	
InChI=1S/C2H3N3/c3-1-2(4)5/h(H3,4,5)	InChI=1S/C2H3N3/c3-1-2(4)5/h(H3,4,5)
