15
gdb 4670	6.81361	1.2867	1.08961	2.7108	72.	-0.2254	-0.0333	0.1922	1045.6713	0.119571	-362.726462	-362.719132	-362.718188	-362.758125	26.779	
C	-0.0303271315	 1.5291594228	 0.0114732647	-0.495948
C	 0.0038557437	 0.0322071377	 0.0074291807	 0.256794
C	-0.033030308	-0.7869537085	-1.082999806	-0.175749
N	 0.0196072849	-2.1097548018	-0.6470545058	-0.037655
C	 0.0034494815	-3.2294780359	-1.4666154195	 0.180725
O	 0.0498511951	-4.3641234242	-1.0680354833	-0.295226
C	 0.0906933457	-2.1204845	 0.7399157376	-0.056569
C	 0.0827436403	-0.8266429658	 1.1649943756	-0.254686
H	 0.866083708	 1.9496598054	 0.4815993744	 0.131963
H	-0.0913560501	 1.9272807078	-1.005043379	 0.124173
H	-0.8925569136	 1.909262355	 0.571361052	 0.131964
H	-0.0920113271	-0.5619504178	-2.1363119748	 0.13321
H	-0.0574906557	-2.9507955856	-2.5342848676	 0.095249
H	 0.138908931	-3.0611958328	 1.2611599462	 0.153484
H	 0.1278426357	-0.5007146664	 2.1939055549	 0.108273
106.2499	128.4712	199.7662	277.532	282.6269	333.8565	497.6819	615.6897	633.9528	671.9711	708.313	788.531	806.535	861.1153	967.0867	1001.7888	1016.7899	1031.1873	1064.3022	1092.6405	1194.9879	1261.5958	1320.0859	1362.6487	1418.1284	1432.7657	1447.9957	1482.275	1499.2046	1530.3541	1639.1697	1823.3454	2974.82	3028.7395	3078.6114	3111.7559	3241.0132	3258.0002	3294.0855
CC1=CN(C=O)C=C1	Cc1cn(C=O)cc1	
InChI=1S/C6H7NO/c1-6-2-3-7(4-6)5-8/h2-5H,1H3	InChI=1S/C6H7NO/c1-6-2-3-7(4-6)5-8/h2-5H,1H3
