14
gdb 1067	7.43399	1.95952	1.57102	1.735	59.38	-0.1898	0.0312	0.221	760.656	0.114923	-324.589539	-324.583091	-324.582147	-324.619783	23.926	
C	 0.0178103937	 1.4290380258	 0.0363034291	-0.325406
N	-0.1556951893	-0.00901878	-0.057065765	-0.380473
C	 0.5512686967	-0.672361828	-1.0569082726	 0.267837
C	 1.1998966721	-0.1413037158	-2.1366927532	-0.094101
O	 1.7109204004	-1.1446479945	-2.9211218172	-0.151454
C	 1.3932900286	-2.3126666313	-2.3213453708	 0.01801
C	 0.6852243897	-2.1000486692	-1.1831101489	-0.288347
H	 1.0709676369	 1.7394945976	 0.1378153795	 0.109504
H	-0.3852652954	 1.905040131	-0.8647360969	 0.132905
H	-0.5444859543	 1.8072108804	 0.8931227369	 0.122283
H	-0.0924940851	-0.4746120571	 0.83699434	 0.23367
H	 1.3703055772	 0.861071446	-2.4866515745	 0.122192
H	 1.7344190336	-3.2061452073	-2.8184502405	 0.131453
H	 0.2942518952	-2.8500688577	-0.5128298559	 0.101927
111.1863	192.1694	227.2573	334.4689	444.9648	557.7516	606.2938	635.183	690.7366	712.5881	761.654	810.1709	886.9338	981.6136	1053.6427	1080.8079	1108.9798	1149.7836	1165.1251	1223.2609	1271.376	1313.7627	1396.3461	1459.609	1480.7325	1499.3487	1523.7553	1551.8329	1659.8874	2967.6442	3059.7321	3118.8968	3248.0159	3278.7067	3296.2155	3585.0442
CNC1=COC=C1	CNc1cocc1	
InChI=1S/C5H7NO/c1-6-5-2-3-7-4-5/h2-4,6H,1H3	InChI=1S/C5H7NO/c1-6-5-2-3-7-4-5/h2-4,6H,1H3
