12
gdb 945	5.96876	2.88574	1.94665	0.6185	58.83	-0.2261	-0.0272	0.1989	615.2639	0.093849	-319.624414	-319.618911	-319.617967	-319.653407	21.04	
N	-0.0154526516	 1.3428620141	 0.1330146332	-0.550679
C	 0.0025600314	-0.0181193794	 0.0492126497	 0.439031
N	-1.1911383583	-0.6383518537	 0.0324333771	-0.306752
C	-1.1495887552	-1.9673037194	-0.0003575163	 0.014701
C	 0.0384843539	-2.6907394101	-0.0200217805	-0.152049
C	 1.206605803	-1.9352795688	-0.013990208	 0.014701
N	 1.2123997373	-0.6056842436	 0.0185269113	-0.306752
H	 0.8408339458	 1.8253045643	-0.0801369574	 0.262566
H	-0.8869418849	 1.8018227253	-0.0701422361	 0.262566
H	-2.1126188668	-2.474476744	-0.0144362995	 0.111383
H	 0.0530225216	-3.7723009446	-0.0480064062	 0.099899
H	 2.1828362739	-2.4160952301	-0.0392897274	 0.111383
184.7131	364.183	401.3196	418.048	518.2644	540.2472	599.5419	650.3884	808.4006	832.368	889.5714	996.629	1002.3193	1013.3997	1038.4473	1095.2249	1142.4523	1274.0098	1334.3432	1388.3632	1479.2325	1490.9782	1597.4019	1620.4354	1647.9822	3145.2643	3146.3724	3218.7307	3612.7337	3743.7201
NC1=NC=CC=N1	Nc1ncccn1	
InChI=1S/C4H5N3/c5-4-6-2-1-3-7-4/h1-3H,(H2,5,6,7)	InChI=1S/C4H5N3/c5-4-6-2-1-3-7-4/h1-3H,(H2,5,6,7)
