15
gdb 4350	3.79192	1.8179	1.23823	3.5684	71.06	-0.2288	-0.0201	0.2087	938.782	0.120285	-362.727997	-362.720853	-362.719909	-362.759526	26.775	
C	 0.0005288532	 1.5084590783	 0.0337090578	-0.496654
C	 0.005529519	 0.0016913472	 0.0134605489	 0.287815
C	-0.1147910999	-0.710664003	-1.1801655587	-0.078861
N	-0.1165744306	-2.0446704087	-1.2573347502	-0.260323
C	 0.0033098243	-2.7386329351	-0.1313307736	-0.052831
C	 0.1303992623	-2.130132945	 1.122829829	 0.345908
O	 0.2468493599	-2.9382973067	 2.2110165907	-0.43491
C	 0.1307774451	-0.7415359385	 1.189044692	-0.303442
H	 0.9286506731	 1.9059196277	 0.4595029863	 0.133465
H	-0.1052303217	 1.9147689734	-0.9753880104	 0.131242
H	-0.8251188533	 1.8976636894	 0.6399452291	 0.133489
H	-0.214774643	-0.1746292266	-2.1213485355	 0.097581
H	 0.0014639462	-3.8234680925	-0.1980989695	 0.113509
H	 0.3270198628	-2.3969561136	 3.0035551906	 0.298711
H	 0.2279576426	-0.2391664262	 2.1497670935	 0.085304
68.7274	208.0909	238.2109	287.7209	365.0247	437.8548	468.4472	532.3784	555.1103	577.9604	732.8628	736.8668	885.973	913.4011	952.1895	969.7957	1024.144	1041.1106	1064.8671	1168.9859	1195.2302	1218.2657	1315.0225	1330.4116	1357.3609	1414.6865	1463.4345	1485.2768	1502.5935	1514.2267	1624.9135	1638.6335	3031.758	3085.3058	3117.5202	3142.4622	3149.9978	3165.2901	3817.0594
CC1=CN=CC(O)=C1	Cc1cncc(O)c1	
InChI=1S/C6H7NO/c1-5-2-6(8)4-7-3-5/h2-4,8H,1H3	InChI=1S/C6H7NO/c1-5-2-6(8)4-7-3-5/h2-4,8H,1H3
