21
gdb 2173	3.29579	2.61041	1.71473	0.1274	73.43	-0.2965	0.0785	0.375	830.2232	0.196419	-275.010289	-275.002547	-275.001603	-275.042396	29.683	
C	 0.277032003	 1.6112796565	-0.2054024486	-0.395211
C	 0.0252573797	 0.1128519495	 0.0093220107	 0.032541
C	 0.5016631863	-0.726097858	-1.220416709	-0.211449
C	 1.5722882729	-1.7147599545	-0.6986417409	-0.203111
C	 2.0734467731	-1.0740884708	 0.6026718203	-0.199248
C	 0.7881330497	-0.5030391944	 1.2245704695	 0.056782
C	 1.0061876273	 0.4110669011	 2.4298188194	-0.416648
H	 1.3439965949	 1.8278669624	-0.3343629989	 0.111396
H	-0.2355084942	 1.9554965953	-1.1101439344	 0.109061
H	-0.0881264888	 2.2149778434	 0.6311666574	 0.110281
H	-1.051763545	-0.0198121472	 0.1615990897	 0.061757
H	-0.3267646581	-1.2455281984	-1.7106516742	 0.092428
H	 0.936874277	-0.0598726283	-1.9734144709	 0.093478
H	 1.1156661363	-2.6857395567	-0.4726270753	 0.094018
H	 2.3668415115	-1.8988259252	-1.4274890473	 0.089124
H	 2.5891468711	-1.7784928261	 1.2632215215	 0.087242
H	 2.7787321779	-0.2605919563	 0.3837923096	 0.090615
H	 0.1942000869	-1.3635963558	 1.5648180236	 0.065508
H	 1.6392493796	 1.268886328	 2.1808828761	 0.114131
H	 0.0584153096	 0.798644208	 2.8197704193	 0.109281
H	 1.4973693491	-0.1340746328	 3.2430383926	 0.108027
31.7303	201.5122	248.0725	257.7091	291.5569	329.8189	368.896	497.2325	548.5697	617.4937	745.0658	818.394	855.2268	865.4536	907.2084	959.684	968.0563	995.8999	1031.2758	1041.4181	1046.9644	1088.9253	1148.293	1182.361	1210.6885	1214.8557	1248.4318	1296.4796	1316.2644	1330.0413	1341.3279	1348.3294	1374.9298	1383.8913	1408.2448	1414.6185	1489.3257	1490.0385	1494.018	1495.4428	1505.9136	1509.7605	1511.4323	2989.0574	3016.6798	3024.4792	3028.9464	3030.3712	3032.3758	3040.0647	3075.3658	3077.5541	3088.6813	3089.9752	3091.6381	3100.0282	3101.7572
CC1CCCC1C	C[C@H]1CCC[C@H]1C	
InChI=1S/C7H14/c1-6-4-3-5-7(6)2/h6-7H,3-5H2,1-2H3	InChI=1S/C7H14/c1-6-4-3-5-7(6)2/h6-7H,3-5H2,1-2H3/t6-,7+
