8
gdb 773	10.00708	3.92257	2.82346	3.6429	37.11	-0.2663	-0.0625	0.2038	416.0147	0.050629	-333.411326	-333.406666	-333.405722	-333.439115	16.477	
N	 0.0079039063	 1.3686969663	 0.1537874269	-0.568149
C	-0.0410815754	 0.0117798051	 0.0413348827	 0.490718
N	-1.1204651016	-0.724754419	-0.0002141271	-0.18883
O	-0.6256232739	-2.0045877933	-0.0436367467	-0.137777
N	 0.742857169	-1.9635247966	-0.03453684	 0.058494
N	 1.1112242035	-0.7590801044	 0.0168775679	-0.214127
H	 0.8662100526	 1.7912763351	-0.1640207653	 0.279892
H	-0.8308229504	 1.8619845467	-0.1095995584	 0.279781
302.7221	348.4842	407.2936	520.6816	650.2372	747.7654	777.9768	808.4127	934.7378	1038.0159	1074.7233	1145.4978	1368.2144	1507.6009	1613.971	1679.7748	3593.7516	3703.5941
NC1=NON=N1	Nc1nonn1	
InChI=1S/CH2N4O/c2-1-3-5-6-4-1/h(H2,2,4)	InChI=1S/CH2N4O/c2-1-3-5-6-4-1/h(H2,2,4)
