13
gdb 716	6.30002	5.36887	4.24885	1.6922	52.04	-0.2409	0.0905	0.3314	402.5187	0.110858	-249.292101	-249.287806	-249.286862	-249.319353	17.15	
C	-0.0165246191	 1.5005155788	 0.1419000778	-0.229105
C	 1.4919986765	 1.3797885922	 0.0313598429	-0.032658
C	 1.9180156507	 0.0931420617	 0.6630751045	-0.032658
C	 0.6869601781	-0.6241393278	 1.1850423664	-0.229105
C	 0.0097029442	-0.0265921959	-0.0636614014	 0.000076
N	 1.4117128103	 0.0983342729	-0.7547038394	-0.160841
H	-0.4667847033	 1.8991610732	 1.0575122954	 0.094782
H	-0.4303458279	 2.0125526206	-0.7304563132	 0.112346
H	 2.2075125337	 2.1509145481	-0.2316769705	 0.093536
H	 2.9587605115	-0.1179803249	 0.8823034313	 0.093536
H	 0.8013479871	-1.7073789338	 1.0959175866	 0.112347
H	 0.2848371683	-0.3708906218	 2.1720376071	 0.094782
H	-0.7967096401	-0.5458978933	-0.5775382175	 0.082962
406.566	424.3978	738.3625	755.0636	772.1392	813.8965	816.5165	915.4617	923.408	992.3339	997.5364	1024.184	1027.7933	1034.2803	1084.1152	1126.8543	1130.0674	1164.1025	1209.9736	1250.9538	1263.9781	1276.5784	1353.8496	1377.1507	1488.6306	1504.3518	3038.4374	3043.339	3104.5431	3105.6234	3138.9185	3172.7478	3184.8373
C1C2C3CC1N23	C1[C@H]2[C@H]3C[C@@H]1N23	
InChI=1S/C5H7N/c1-3-2-5-4(1)6(3)5/h3-5H,1-2H2	InChI=1S/C5H7N/c1-3-2-5-4(1)6(3)5/h3-5H,1-2H2/t3-,4+,5-,6?
