15
gdb 987	3.75676	3.12372	1.72832	1.7114	63.55	-0.1733	0.0597	0.2329	715.206	0.126502	-304.732336	-304.725068	-304.724124	-304.763129	26.984	
C	-0.0588654421	 1.5191225382	 0.0229241671	-0.515509
C	-0.0158994366	 0.0223549465	 0.0050885731	 0.242052
C	-0.0082727656	-0.8029925865	-1.0986363675	-0.165859
N	 0.0171842678	-2.1009740042	-0.6704074904	-0.242864
C	 0.0361725085	-2.1340768873	 0.7097176865	-0.162104
C	 0.0117606265	-0.8301695823	 1.1541274022	 0.158683
N	-0.0661489571	-0.372216418	 2.4873301919	-0.605622
H	 0.8463032922	 1.9581218041	 0.465296295	 0.110747
H	-0.1485777305	 1.9231048721	-0.9896736577	 0.117328
H	-0.9088596182	 1.8919134291	 0.6074409826	 0.128185
H	-0.0214108592	-0.5594276566	-2.1494539487	 0.108121
H	 0.0252240874	-2.9085293199	-1.2654726929	 0.256271
H	 0.0539014735	-3.0669390945	 1.249629811	 0.100178
H	 0.2024432989	-1.0869220394	 3.1523941489	 0.233787
H	 0.5197887446	 0.4400586687	 2.642468779	 0.236604
119.6696	187.9009	232.7738	246.1102	288.4205	378.4663	431.2831	616.8302	619.1648	625.0277	688.2004	728.3177	735.9198	805.4187	902.421	997.2349	1064.7563	1076.0107	1095.8863	1149.0853	1228.9969	1278.1813	1353.0158	1417.8676	1428.722	1479.5208	1481.6735	1503.0393	1571.8614	1635.2669	1660.6376	3005.4814	3052.7868	3101.8856	3253.8946	3259.6696	3517.1157	3605.9859	3703.2677
CC1=CNC=C1N	Cc1c[nH]cc1N	
InChI=1S/C5H8N2/c1-4-2-7-3-5(4)6/h2-3,7H,6H2,1H3	InChI=1S/C5H8N2/c1-4-2-7-3-5(4)6/h2-3,7H,6H2,1H3
