14
gdb 660	5.07767	4.68874	2.73815	0.	49.61	-0.2351	0.0954	0.3304	498.9247	0.122092	-307.560718	-307.555511	-307.554567	-307.589116	19.679	
C	-0.0041949231	 1.399630661	 0.0057100352	-0.076192
C	 1.4261415319	 1.9285105622	-0.0233055938	-0.076192
O	 2.1286899462	 1.4073341204	-1.1415159113	-0.248604
C	 2.1214011273	-0.0122781836	-1.1257493565	-0.076192
C	 0.691064008	-0.5411551739	-1.0967424916	-0.076191
O	-0.0114869421	-0.0199806285	 0.0214677011	-0.248604
H	-0.5277619522	 1.7298437812	 0.9081954976	 0.107444
H	-0.5505823391	 1.7727380817	-0.8763266719	 0.09305
H	 1.440916731	 3.0185872857	-0.1190004549	 0.107444
H	 1.9390444715	 1.6488591963	 0.9118220117	 0.093049
H	 2.6449781886	-0.3424950531	-2.0282270529	 0.107444
H	 2.6677802808	-0.3853784326	-0.2437041961	 0.09305
H	 0.1781661906	-0.2614976831	-2.0318714017	 0.093049
H	 0.6762819706	-1.6312317237	-1.0010508048	 0.107444
252.9164	268.8417	414.9789	442.1852	491.57	610.7893	852.0977	866.5428	895.0903	895.4859	1023.8589	1068.9244	1112.2025	1141.21	1148.8304	1148.8353	1239.5993	1282.3125	1321.3823	1330.0008	1363.711	1395.8205	1415.9027	1425.8749	1479.7164	1481.2732	1489.4433	1495.872	2965.1742	2972.7514	2976.4852	2982.1183	3084.2018	3084.2065	3085.5124	3086.3723
C1COCCO1	C1COCCO1	
InChI=1S/C4H8O2/c1-2-6-4-3-5-1/h1-4H2	InChI=1S/C4H8O2/c1-2-6-4-3-5-1/h1-4H2
