15
gdb 84	8.11598	3.43678	2.66869	1.3894	49.45	-0.2617	0.0733	0.335	521.8605	0.136091	-233.555951	-233.549143	-233.548199	-233.585602	23.99	
C	-0.0384122739	 1.5562139555	 0.0093583711	-0.382306
C	 0.0190713549	 0.0271607936	-0.0207420337	-0.149687
C	 0.7314150616	-0.5270932838	-1.2545442224	 0.152439
C	 0.8397586786	-2.0520697262	-1.2287265483	-0.401008
O	-0.0122646966	-0.0851439391	-2.3897375816	-0.433611
H	 0.9684566397	 1.9886342433	 0.0352623359	 0.106881
H	-0.5437700638	 1.9382413366	-0.8807440679	 0.135694
H	-0.5765295543	 1.913833865	 0.8925669784	 0.106104
H	 0.5316686733	-0.3499148575	 0.8724099871	 0.089962
H	-0.9972718631	-0.3863865384	-0.0018528883	 0.100441
H	 1.7490934553	-0.0994302533	-1.2882618384	 0.058678
H	 1.3414396806	-2.4248713696	-2.1295762354	 0.10081
H	 1.4182201161	-2.3922910778	-0.3634087105	 0.113348
H	-0.1561676504	-2.5044385917	-1.1830887498	 0.122884
H	 0.430908252	-0.4090161566	-3.1797964163	 0.279373
110.2403	222.257	232.9581	250.609	284.7265	371.2924	456.4002	487.7643	774.897	818.4528	922.0615	981.2024	1007.2042	1043.4693	1084.8178	1160.4917	1169.3183	1261.559	1319.5498	1339.0262	1384.087	1404.5688	1406.2693	1429.6919	1474.7617	1492.4738	1496.5017	1498.2772	1510.5529	2942.3549	3023.1551	3028.1086	3035.02	3063.9881	3090.9028	3098.1408	3109.8191	3127.621	3822.4705
CCC(C)O	CC[C@@H](C)O	
InChI=1S/C4H10O/c1-3-4(2)5/h4-5H,3H2,1-2H3	InChI=1S/C4H10O/c1-3-4(2)5/h4-5H,3H2,1-2H3/t4-/m1/s1
