13
gdb 2498	2.94736	2.94701	1.47359	0.0007	61.34	-0.245	-0.0173	0.2278	777.3909	0.103346	-336.823026	-336.816017	-336.815073	-336.854165	24.407	
N	 0.3690765975	 1.2892166537	-0.5840528967	-0.463311
C	 0.2123923782	 0.0595851954	-0.310748904	 0.099905
N	-1.047041332	-0.4669371484	 0.009593395	-0.085419
C	-1.1820307736	-1.8306825818	 0.3062645334	 0.099897
N	-0.1846616984	-2.6157656657	 0.2934765827	-0.463357
C	-2.1715607963	 0.3702323354	 0.0333264729	 0.099915
N	-3.3255941658	-0.0744734235	 0.3191768227	-0.463361
H	 1.347592874	 1.4797514008	-0.7889155242	 0.237567
H	 0.9783864835	-0.7151372943	-0.2857847946	 0.154339
H	-2.2179938875	-2.081217729	 0.5333098685	 0.154362
H	-0.4798766315	-3.5597620423	 0.5332418237	 0.237565
H	-1.9016094961	 1.3955776483	-0.2184011344	 0.154336
H	-4.0089312221	 0.6789360213	 0.2844750551	 0.237562
114.2619	185.4433	186.1825	270.0988	270.6807	283.6994	471.9754	679.6546	679.8358	819.8756	820.459	846.7161	850.3636	1087.5571	1087.5953	1092.9892	1137.8121	1138.0236	1224.8735	1361.9917	1362.3184	1415.9472	1416.3273	1419.5118	1714.8305	1714.8381	1739.4883	3142.8136	3143.4793	3143.5746	3513.3482	3513.4712	3513.6958
N=CN(C=N)C=N	N=CN(C=N)C=N	
InChI=1S/C3H6N4/c4-1-7(2-5)3-6/h1-6H	InChI=1S/C3H6N4/c4-1-7(2-5)3-6/h1-6H
