9
gdb 763	9.69666	3.72109	2.69764	4.0976	40.94	-0.2311	-0.0346	0.1965	441.012	0.062456	-317.377404	-317.372496	-317.371552	-317.405485	17.458	
N	 0.0091160715	 1.4002085744	 0.1710340014	-0.593458
C	-0.0631386325	 0.0206717937	 0.0489022579	 0.279084
C	-1.1107607947	-0.8486810084	 0.017736436	-0.037469
O	-0.6113205662	-2.0959150944	-0.0403022412	-0.152983
N	 0.7814128868	-1.9790451616	-0.036187138	 0.000482
N	 1.0781286981	-0.7490165802	 0.0123235478	-0.175829
H	 0.9208272831	 1.7515119674	-0.0899788016	 0.264872
H	-0.7239601449	 1.9004362397	-0.3112989078	 0.25738
H	-2.1814836513	-0.7445363706	 0.0289075155	 0.157921
198.4402	329.9435	384.4776	624.1479	667.354	711.2758	732.1222	759.447	779.8117	990.5766	1052.6488	1095.4289	1142.0052	1292.8735	1381.7795	1449.0907	1636.0058	1675.2921	3299.4957	3558.3248	3654.4773
NC1=CON=N1	Nc1conn1	
InChI=1S/C2H3N3O/c3-2-1-6-5-4-2/h1H,3H2	InChI=1S/C2H3N3O/c3-2-1-6-5-4-2/h1H,3H2
