17
gdb 621	7.05136	2.30446	1.97525	1.1836	61.07	-0.2199	0.0929	0.3128	698.3614	0.153906	-251.729571	-251.722367	-251.721423	-251.760315	25.937	
C	 0.2584752323	 1.5778955912	 0.0667358016	-0.369439
C	-0.1971854801	 0.1259569756	-0.062322739	-0.112578
N	 0.4760227586	-0.5111338681	-1.1895094926	-0.076701
C	 1.7245808872	-1.2197816674	-0.9241810625	-0.252805
C	 0.4943673169	-1.9700386503	-1.3096697131	 0.034291
C	-0.2031985154	-2.8979754721	-0.3375394595	-0.411798
H	 1.3320856126	 1.6319860262	 0.2755497806	 0.116587
H	 0.0687997465	 2.1227715482	-0.8621522515	 0.12549
H	-0.2709002831	 2.0796160164	 0.8828727686	 0.107723
H	-0.0250801357	-0.3955364413	 0.8940179221	 0.079081
H	-1.2765655797	 0.0910063779	-0.254634637	 0.100018
H	 2.533941045	-1.0568790684	-1.6316684299	 0.109805
H	 2.0448346193	-1.309813725	 0.11471828	 0.100262
H	 0.4151395182	-2.2954168274	-2.3468852838	 0.08674
H	-0.033403373	-2.61922318	 0.704929128	 0.120313
H	-1.284786466	-2.9154446517	-0.5131872412	 0.121625
H	 0.1675214266	-3.9199710739	-0.4705654307	 0.121386
86.9032	163.7171	207.1924	227.4599	292.9207	364.939	432.2931	525.9646	727.4816	788.5356	814.4372	901.1988	930.0722	979.8195	1033.7933	1060.9751	1102.5098	1112.7771	1147.4811	1150.6616	1192.1974	1200.5848	1311.1653	1337.7508	1383.2188	1402.256	1410.5503	1419.6847	1486.86	1488.5659	1493.5765	1498.9046	1506.2131	1517.9396	2958.1909	3034.5587	3037.6971	3044.3087	3077.6466	3091.3751	3096.4101	3106.0713	3119.13	3125.4785	3165.5679
CCN1CC1C	CCN1C[C@H]1C	
InChI=1S/C5H11N/c1-3-6-4-5(6)2/h5H,3-4H2,1-2H3	InChI=1S/C5H11N/c1-3-6-4-5(6)2/h5H,3-4H2,1-2H3/t5-,6?/m1/s1
