8
gdb 62	10.84211	4.27948	3.06837	5.1668	33.39	-0.2533	-0.0763	0.177	381.9882	0.054577	-283.16874	-283.163262	-283.162318	-283.197298	17.525	
N	-0.0552547069	 1.3254852675	 0.0089721093	-0.51721
C	 0.0891446291	-0.0292648192	 0.0006744177	 0.319772
O	 1.1462543185	-0.6155710582	-0.0118476614	-0.319968
C	-1.2657203044	-0.7662357949	 0.009700817	 0.098056
O	-1.3463373302	-1.9599371246	 0.004631623	-0.200277
H	 0.7691565827	 1.903871009	 0.0044806226	 0.275105
H	-0.9554229432	 1.7723864621	 0.0197939724	 0.268278
H	-2.1717594355	-0.1139728518	 0.0213774594	 0.076243
105.9003	204.6304	272.1475	444.8773	490.5682	659.6994	674.3884	822.9462	996.9861	1079.405	1299.0451	1429.6234	1617.7638	1822.1035	1857.3524	2840.8345	3603.1776	3735.1497
NC(=O)C=O	NC(=O)C=O	
InChI=1S/C2H3NO2/c3-2(5)1-4/h1H,(H2,3,5)	InChI=1S/C2H3NO2/c3-2(5)1-4/h1H,(H2,3,5)
