13
gdb 1610	3.86878	2.22582	1.58242	0.9633	51.49	-0.2681	-0.1102	0.1579	756.6399	0.098581	-381.606362	-381.598596	-381.597651	-381.638553	26.482	
C	 0.2648876603	 1.3329805691	 0.3817829885	-0.414069
C	-0.0001961148	-0.1176774489	-0.0628485057	 0.061128
O	-1.3677606776	-0.4249615396	 0.0135822301	-0.435531
C	 0.5022598938	-0.3535633144	-1.4749396993	 0.269372
O	-0.2527286007	-0.6192035426	-2.3858009482	-0.300466
C	 2.0024988037	-0.2846696549	-1.7736611131	 0.095756
O	 2.8440380846	-0.1036416596	-0.934204044	-0.211331
H	 1.3356688043	 1.5420040442	 0.4283911221	 0.1424
H	-0.2174274143	 2.0376651029	-0.3024112744	 0.12591
H	-0.1693094488	 1.4709036082	 1.3745412988	 0.142195
H	 0.5703690883	-0.7885387282	 0.5987947226	 0.111892
H	-1.6602207112	-0.6023803447	-0.8928153444	 0.294277
H	 2.2300129426	-0.4433732815	-2.848285853	 0.118468
66.6866	119.9551	185.1541	222.0967	260.7269	338.2519	362.6362	411.2016	513.3609	600.3582	661.4286	763.4443	923.6511	972.8113	1051.8528	1095.5788	1145.1551	1197.4934	1290.5943	1338.3472	1367.8033	1391.8666	1429.6531	1494.7353	1497.3921	1786.1991	1822.8227	2932.5008	2989.0437	3049.5232	3127.3471	3145.2668	3716.9464
CC(O)C(=O)C=O	C[C@@H](O)C(=O)C=O	
InChI=1S/C4H6O3/c1-3(6)4(7)2-5/h2-3,6H,1H3	InChI=1S/C4H6O3/c1-3(6)4(7)2-5/h2-3,6H,1H3/t3-/m1/s1
