16
gdb 618	6.86289	2.25726	1.95048	1.2983	56.83	-0.2517	0.0822	0.3338	686.1164	0.142271	-271.617434	-271.610415	-271.609471	-271.647992	25.546	
C	-0.0153635003	 1.5060701511	-0.2181344775	-0.37245
C	-0.0232855104	 0.0630317996	 0.2973618247	-0.185439
C	-1.3885891889	-0.5862715712	 0.2014575745	 0.005733
C	-1.8593797666	-1.1916030616	-1.1100588466	-0.325681
C	-1.536679388	-2.0738726338	 0.0712727132	 0.090668
O	-0.3600874481	-2.8326125468	 0.0667510091	-0.417685
H	 0.9800189377	 1.9528058141	-0.1294588964	 0.108831
H	-0.3124553226	 1.5502176879	-1.2713571641	 0.114363
H	-0.7131575345	 2.1342849657	 0.3470242001	 0.109915
H	 0.6990485256	-0.5422554472	-0.2586539956	 0.108025
H	 0.3102118219	 0.0449869214	 1.3430980244	 0.096824
H	-2.159394326	-0.0986265444	 0.7944025679	 0.081014
H	-2.8931014954	-1.073363568	-1.4168800324	 0.106809
H	-1.141025756	-1.1993353722	-1.924422254	 0.110389
H	-2.3715282834	-2.5418036665	 0.5937415678	 0.08181
H	-0.4702074652	-3.5429267082	-0.5734783151	 0.286874
89.4699	169.0966	222.6218	278.4271	305.0978	366.3456	461.1463	574.621	749.6913	787.7178	825.0006	854.457	954.5606	970.7139	1007.3394	1036.966	1070.7703	1112.5065	1141.5678	1177.73	1200.3347	1238.3301	1282.4249	1304.7464	1340.25	1402.7936	1411.263	1425.6379	1484.5719	1493.8265	1499.011	1509.4366	3025.9977	3029.4126	3076.3313	3090.8048	3099.5069	3102.6256	3123.8852	3131.0815	3212.4187	3809.1737
CCC1CC1O	CC[C@H]1C[C@H]1O	
InChI=1S/C5H10O/c1-2-4-3-5(4)6/h4-6H,2-3H2,1H3	InChI=1S/C5H10O/c1-2-4-3-5(4)6/h4-6H,2-3H2,1H3/t4-,5+/m0/s1
