11
gdb 1374	8.17957	1.59325	1.33351	5.1914	58.24	-0.2549	-0.0509	0.204	827.4768	0.077374	-339.418028	-339.410839	-339.409895	-339.449597	24.471	
N	 0.2601903617	 1.2894617041	 0.0052215923	-0.393188
C	 0.0213514033	 0.0464223338	 0.0020327062	 0.084497
N	-1.2573402894	-0.5096748443	 0.0109144624	-0.325444
C	-2.4914632998	 0.1360114562	 0.0265653094	 0.312292
O	-2.6618053973	 1.3290624567	 0.0356279779	-0.294854
C	-3.5933586859	-0.8221979963	 0.031341327	 0.196458
C	-4.524038506	-1.5836707168	 0.0356833563	-0.392011
H	 1.2672818403	 1.4442569675	-0.0032100997	 0.232891
H	 0.7759984091	-0.7503005525	-0.0084357304	 0.098611
H	-1.3004458015	-1.5170124708	 0.005574911	 0.264809
H	-5.3583661545	-2.2424780276	 0.0397634374	 0.215939
66.243	140.8782	165.9806	231.8939	273.3443	425.8691	574.7221	578.2049	664.7432	680.0479	684.0315	757.4051	825.5984	935.4491	1054.6028	1065.0074	1191.625	1258.5124	1430.9753	1533.1448	1734.1566	1808.2287	2222.9192	3034.712	3493.655	3498.4551	3632.7053
N=CNC(=O)C#C	N=CNC(=O)C#C	
InChI=1S/C4H4N2O/c1-2-4(7)6-3-5/h1,3H,(H2,5,6,7)	InChI=1S/C4H4N2O/c1-2-4(7)6-3-5/h1,3H,(H2,5,6,7)
