13
gdb 3719	7.43139	1.92579	1.55888	3.8266	54.89	-0.2681	-0.0355	0.2326	757.6439	0.101698	-340.620294	-340.613864	-340.61292	-340.651413	22.581	
C	 0.4102996914	 1.1771493605	 0.5828838618	-0.391321
C	-0.3362690523	 0.3487928612	-0.4664249516	-0.283601
C	 0.5693979543	-0.3516002958	-1.4268581564	 0.258886
C	 1.92315888	-0.3911713476	-1.5426868865	-0.042793
O	 2.2573197889	-1.1658698173	-2.5746711692	-0.165887
N	 1.028497195	-1.6339789249	-3.1299512137	-0.004635
N	 0.0900580945	-1.1503996028	-2.4496763691	-0.176069
H	 1.0713083668	 0.5493548423	 1.1893893936	 0.124936
H	 1.0199752934	 1.9569175862	 0.1147341063	 0.124942
H	-0.2956843525	 1.6670077164	 1.2582126623	 0.126787
H	-0.9713319478	-0.3971526131	 0.0267926321	 0.131412
H	-1.0218930885	 0.9907151509	-1.0328740914	 0.131415
H	 2.7292147168	 0.060422084	-0.9892980483	 0.165929
37.9643	192.9198	216.5865	306.7358	425.7443	632.8321	637.3753	656.845	698.4594	789.1546	846.7187	964.9589	1001.528	1045.9061	1078.9487	1115.3914	1150.8959	1229.0937	1283.1169	1313.0581	1373.1709	1411.5594	1469.2784	1483.4702	1499.6088	1509.7543	1623.6381	3032.1325	3039.2614	3057.8509	3105.3154	3119.434	3291.4299
CCC1=CON=N1	CCc1conn1	
InChI=1S/C4H6N2O/c1-2-4-3-7-6-5-4/h3H,2H2,1H3	InChI=1S/C4H6N2O/c1-2-4-3-7-6-5-4/h3H,2H2,1H3
