16
gdb 3326	6.07731	1.87082	1.68625	1.4391	60.34	-0.2261	0.082	0.3082	767.2757	0.137696	-325.718488	-325.711711	-325.710766	-325.74921	25.348	
O	-0.0290905667	 1.3912983374	-0.2156536989	-0.426591
C	 0.0333634473	 0.0004198698	 0.0808794492	-0.092022
C	-1.3770529208	-0.5476632048	-0.0004319998	 0.03755
C	-2.0722788447	-0.6185875123	-1.4105411686	-0.229682
C	-2.2363369379	-2.1280517759	-1.2065748844	-0.038823
N	-0.8655890078	-2.6749529301	-1.0498872302	-0.331776
C	-1.5584910736	-2.0689251563	 0.1168911245	-0.080101
H	 0.8708063492	 1.7203104242	-0.2937659873	 0.285034
H	 0.6710256126	-0.5380412758	-0.632476982	 0.107264
H	 0.4398350899	-0.1720314592	 1.0921391399	 0.075487
H	-2.0173986535	-0.0182888113	 0.7108549024	 0.080062
H	-3.0173054658	-0.0731518925	-1.4358984171	 0.102711
H	-1.4584550122	-0.3277181156	-2.2661078707	 0.108378
H	-3.0456826679	-2.7645765035	-1.5427518534	 0.089943
H	-0.9581019431	-3.6858191036	-0.9510270947	 0.225668
H	-1.726930565	-2.6477458805	 1.017336591	 0.086898
99.9478	164.5064	224.4011	261.5542	389.8091	446.5551	540.6122	680.6179	796.6173	820.3413	852.1642	873.785	937.4772	966.1785	989.0635	1013.775	1068.3818	1071.4254	1089.0837	1118.2553	1134.5914	1169.3765	1190.6379	1245.2583	1254.3625	1269.8643	1304.4446	1329.509	1355.6246	1388.8476	1457.4842	1478.5496	1525.3077	2956.6749	3032.5528	3069.9346	3074.4798	3129.4169	3177.1223	3191.9671	3468.7582	3832.092
OCC1CC2NC12	OC[C@H]1C[C@H]2N[C@@H]12	
InChI=1S/C5H9NO/c7-2-3-1-4-5(3)6-4/h3-7H,1-2H2	InChI=1S/C5H9NO/c7-2-3-1-4-5(3)6-4/h3-7H,1-2H2/t3-,4-,5+/m1/s1
