13
gdb 4388	3.81554	2.03206	1.33688	5.9386	64.09	-0.2565	-0.0733	0.1832	859.0955	0.095683	-398.663579	-398.656725	-398.655781	-398.69498	24.735	
C	 0.0585920114	 1.490082341	 0.022576603	-0.476134
C	-0.0710367032	 0.0039191487	 0.0057509676	 0.417887
C	-1.2176998852	-0.7056984197	-0.1564660282	-0.254299
C	-1.0953709761	-2.121484677	-0.1376476187	 0.046597
N	 0.0196517062	-2.7745849674	 0.0214178057	-0.323274
C	 1.1874214117	-2.0647289475	 0.1866122221	 0.441266
O	 2.2831278537	-2.5083003187	 0.3426464335	-0.323587
O	 1.0918356092	-0.6274037595	 0.1717231533	-0.245373
H	 0.7393619089	 1.8159797216	-0.7706271669	 0.162899
H	-0.9118646308	 1.9687121228	-0.1157393166	 0.142229
H	 0.4916134912	 1.8179013809	 0.9732993616	 0.162897
H	-2.1708080474	-0.2154585482	-0.2924636848	 0.117134
H	-1.9913290996	-2.7302285971	-0.2643121417	 0.131757
92.7859	137.3551	181.8227	298.9461	428.6398	512.4301	541.4207	566.3274	618.9835	743.4106	803.6136	805.5175	814.2754	953.048	1017.0876	1018.2635	1052.9372	1064.1163	1107.959	1254.184	1393.8799	1410.0939	1417.868	1467.7002	1480.1513	1582.0405	1685.2196	1882.5397	3046.0748	3105.8193	3128.3542	3148.9259	3238.3591
CC1=CC=NC(=O)O1	Cc1ccnc(=O)o1	
InChI=1S/C5H5NO2/c1-4-2-3-6-5(7)8-4/h2-3H,1H3	InChI=1S/C5H5NO2/c1-4-2-3-6-5(7)8-4/h2-3H,1H3
