13
gdb 2914	5.20152	2.27975	1.97268	2.3665	49.95	-0.254	-0.0337	0.2202	658.9679	0.101662	-381.585231	-381.578743	-381.577799	-381.616587	21.841	
O	 0.1582706582	-0.0932944452	-0.0208172144	-0.2303
C	 0.0979712364	 1.1039572622	-0.0939382778	 0.143599
C	 1.2993871977	 2.0378626721	-0.0341038073	-0.011367
C	 1.3602580968	 2.7684744005	 1.3538121848	-0.122713
O	 2.609674655	 2.3711497944	 1.8894907054	-0.233778
C	 2.9740385027	 1.1927352085	 1.2072480352	 0.016564
O	 2.5291562255	 1.3572349028	-0.1214430522	-0.222375
H	-0.8773415671	 1.6389148058	-0.1908320906	 0.077319
H	 1.2293060021	 2.7501569134	-0.8648517757	 0.111246
H	 1.3491876542	 3.8567876069	 1.2592397126	 0.127319
H	 0.5307958537	 2.4621352865	 2.0076514944	 0.110815
H	 4.0624543038	 1.0979578633	 1.2120973478	 0.127128
H	 2.501155911	 0.3083426087	 1.664142868	 0.106544
52.6388	101.2683	205.5309	296.833	328.4265	685.407	711.7137	762.262	829.7263	915.6448	942.903	962.2049	1017.4328	1100.6233	1112.3813	1141.4783	1191.352	1217.0783	1238.677	1274.9761	1352.0928	1360.9268	1408.2684	1435.0225	1521.306	1544.4461	1844.6783	2846.1287	2976.9708	2999.0186	3043.8934	3095.9668	3107.3885
O=CC1COCO1	O=C[C@H]1COCO1	
InChI=1S/C4H6O3/c5-1-4-2-6-3-7-4/h1,4H,2-3H2	InChI=1S/C4H6O3/c5-1-4-2-6-3-7-4/h1,4H,2-3H2/t4-/m0/s1
