17
gdb 4536	3.82716	1.67568	1.18036	1.1944	73.65	-0.1672	0.0582	0.2254	1009.1722	0.143522	-360.061805	-360.053093	-360.052149	-360.095061	31.7	
C	 0.0932905194	 1.4307328987	-0.0086361449	-0.329765
N	-0.0377888464	-0.0052475434	 0.0179710361	 0.020502
C	-0.1449293441	-0.8108968978	-1.0950413304	-0.180955
C	-0.0360354605	-2.1236874114	-0.6911788739	 0.183736
N	-0.1813487791	-3.314932731	-1.4391643941	-0.618371
C	 0.1567593819	-2.1166412646	 0.7220134067	 0.189215
N	 0.3435195639	-3.2971893778	 1.476394466	-0.62099
C	 0.1626040141	-0.7995002989	 1.1267807246	-0.180004
H	 1.1318772953	 1.7566839911	-0.1571301755	 0.127123
H	-0.5160622737	 1.8406881633	-0.8189455522	 0.132037
H	-0.2684632189	 1.8512980598	 0.9339760643	 0.131818
H	-0.2958366975	-0.3851860198	-2.074630935	 0.09742
H	-0.1925000647	-3.1368653912	-2.4361534664	 0.233605
H	 0.5801576326	-3.9574329541	-1.2419869974	 0.242165
H	 0.3069798183	-3.1202810994	 2.4729064829	 0.233485
H	-0.3706799416	-3.98334661	 1.2504999323	 0.241748
H	 0.2903251109	-0.3627635334	 2.1047933869	 0.097231
58.9354	123.8446	129.4788	230.0759	265.5662	291.4419	323.0049	325.5499	503.619	584.7958	595.94	605.359	632.5749	697.0479	702.5301	822.28	823.2188	855.3129	1017.7931	1083.6447	1118.2092	1122.2567	1149.0093	1207.6799	1230.0992	1299.3374	1409.894	1429.2958	1462.0564	1470.5343	1492.1716	1516.6715	1598.9512	1621.0359	1648.5008	1667.7491	3005.4281	3078.249	3116.0915	3249.3106	3253.5034	3493.5455	3496.7132	3594.5522	3595.9351
CN1C=C(N)C(N)=C1	Cn1cc(N)c(N)c1	
InChI=1S/C5H9N3/c1-8-2-4(6)5(7)3-8/h2-3H,6-7H2,1H3	InChI=1S/C5H9N3/c1-8-2-4(6)5(7)3-8/h2-3H,6-7H2,1H3
