13
gdb 2629	14.81852	0.91712	0.88127	2.3616	56.07	-0.2661	-0.0428	0.2233	1184.4021	0.100399	-340.635024	-340.627255	-340.626311	-340.668053	25.201	
O	-0.1251837045	-0.038871441	 0.2156933793	-0.227756
C	 0.0123783863	 1.1031355244	-0.1318047102	 0.146471
C	 1.3528688399	 1.8219186183	-0.1782592692	-0.222722
N	 1.3532295507	 2.8364570622	-1.2217508918	-0.308106
C	 2.5193785383	 3.7119388607	-1.1736392874	-0.259793
C	 2.4756816017	 4.7017508505	-2.253643981	 0.259497
N	 2.4539371658	 5.4668844109	-3.1182174649	-0.289535
H	-0.8458435161	 1.741322453	-0.438307705	 0.097646
H	 1.4646476185	 2.3300275368	 0.791872485	 0.140044
H	 2.1583226338	 1.0725964598	-0.2417444924	 0.120589
H	 1.2954901419	 2.4022225479	-2.1374190515	 0.241784
H	 2.5183459531	 4.245371866	-0.2148861481	 0.161768
H	 3.4868142607	 3.1825167005	-1.2368075829	 0.140111
58.4092	82.5677	107.7576	136.7239	262.4268	366.1484	391.7077	481.7442	595.1894	738.9174	800.3405	944.8986	995.127	1012.7442	1074.9655	1138.8452	1154.2768	1218.7699	1285.2897	1317.5531	1386.2341	1410.216	1473.1775	1493.4187	1505.4201	1843.2483	2370.5811	2897.8263	2949.8794	2978.5038	3023.7868	3050.5032	3522.7078
O=CCNCC#N	O=CCNCC#N	
InChI=1S/C4H6N2O/c5-1-2-6-3-4-7/h4,6H,2-3H2	InChI=1S/C4H6N2O/c5-1-2-6-3-4-7/h4,6H,2-3H2
