12
gdb 3686	7.51908	2.16795	1.70292	1.8952	52.17	-0.2359	-0.005	0.2308	697.688	0.09111	-356.712023	-356.705546	-356.704602	-356.74262	22.978	
C	-0.0064857054	 1.4598287898	-0.0342815339	-0.493462
C	-0.0667318939	-0.0228606553	 0.0534056584	 0.430671
N	-1.0819505976	-0.7987999222	-0.1844737064	-0.352417
C	-0.5491284782	-2.0468956293	 0.062217262	 0.405237
N	-1.3218929822	-3.1760139109	-0.0150668286	-0.5838
N	 0.714666464	-2.0544933759	 0.419760827	-0.214566
O	 1.0368216083	-0.6764601428	 0.420648275	-0.200964
H	 0.7671486352	 1.7727038192	-0.7417396152	 0.156828
H	-0.9732301364	 1.8414332319	-0.3615815181	 0.160486
H	 0.2422216377	 1.8918694091	 0.939746316	 0.158425
H	-2.1045356788	-3.0951781147	-0.6456886224	 0.266914
H	-0.8077405028	-4.0396157589	-0.1015174837	 0.266648
59.8167	204.643	279.4238	332.6624	373.6625	459.494	565.2355	641.5193	659.8857	771.9627	788.233	919.671	1003.0559	1028.3962	1068.7518	1078.7341	1130.6035	1319.712	1407.592	1450.7246	1475.7792	1476.811	1583.9135	1640.0711	1662.023	3053.7548	3112.8254	3163.8988	3585.019	3694.892
CC1=NC(N)=NO1	Cc1nc(N)no1	
InChI=1S/C3H5N3O/c1-2-5-3(4)6-7-2/h1H3,(H2,4,6)	InChI=1S/C3H5N3O/c1-2-5-3(4)6-7-2/h1H3,(H2,4,6)
