15
gdb 4084	4.35253	1.55778	1.21392	1.569	60.66	-0.2564	-0.0056	0.2507	946.4867	0.119641	-436.883707	-436.876585	-436.875641	-436.915175	26.554	
O	-0.0482561904	 1.3675814108	-0.0463048896	-0.392518
N	 0.0616034711	-0.0285748526	 0.025232287	-0.184607
C	-1.0743394317	-0.6017887566	 0.0769840736	 0.357997
C	-2.4294665382	 0.0663084775	 0.11806344	-0.181554
O	-3.2972837765	-0.6169460692	 1.0159121913	-0.232408
C	-3.3157907851	-1.999955297	 0.7879267771	 0.022104
O	-2.0658418077	-2.5963699607	 1.0082589293	-0.227267
C	-1.1006121901	-2.1109034872	 0.0837203767	-0.171219
H	 0.8729488918	 1.6462833957	-0.0115879969	 0.311173
H	-2.3451823975	 1.0952892186	 0.465594216	 0.1494
H	-2.8623496929	 0.0775583513	-0.8977118243	 0.10978
H	-4.0093648604	-2.4316471188	 1.5113938706	 0.12432
H	-3.6566736444	-2.2099490153	-0.2454690943	 0.074016
H	-1.3471728313	-2.4742947965	-0.9301789068	 0.104063
H	-0.1271899566	-2.51257503	 0.3682058602	 0.13672
91.3128	197.5923	246.2897	310.5836	349.5442	410.2832	435.6663	459.7365	545.461	604.3383	723.2869	852.7532	927.5131	951.4493	965.9816	990.8208	1058.2682	1072.5527	1149.5103	1197.3297	1230.9129	1272.9693	1292.9355	1331.7824	1363.6456	1375.2955	1421.7994	1440.2847	1481.7591	1483.649	1506.9971	1751.2414	2908.1475	2946.4131	2958.3602	3120.6989	3125.3443	3142.3664	3821.3444
ON=C1COCOC1	ON=C1COCOC1	
InChI=1S/C4H7NO3/c6-5-4-1-7-3-8-2-4/h6H,1-3H2	InChI=1S/C4H7NO3/c6-5-4-1-7-3-8-2-4/h6H,1-3H2
