11
gdb 3875	6.06225	2.95655	1.98846	2.408	55.4	-0.2271	-0.0603	0.1667	592.6353	0.081051	-335.635972	-335.630447	-335.629502	-335.665055	20.548	
N	-0.0217394842	 1.3345650659	-0.1013748324	-0.540941
C	-0.0151782891	-0.0208794499	-0.037763825	 0.48065
N	-1.2067802019	-0.6487281976	-0.018854246	-0.293668
C	-1.1254991662	-1.9686393781	-0.0057143842	-0.001735
C	 0.1069213242	-2.6213473122	-0.0079058781	-0.011934
N	 1.2466966967	-1.9305016024	-0.0081217637	-0.161457
N	 1.1999202366	-0.6122601632	-0.0205483323	-0.256982
H	 0.8471445311	 1.8112987117	 0.0699692684	 0.271908
H	-0.886018872	 1.8100994559	 0.091864511	 0.268698
H	-2.0609456423	-2.5242427683	 0.0117205662	 0.124623
H	 0.1946188872	-3.7014865817	 0.000867356	 0.120838
168.3474	312.3968	393.3171	402.6162	517.9732	563.415	608.2585	662.9743	834.7987	872.3931	888.1882	1000.998	1032.2102	1038.2967	1091.3868	1158.5126	1217.128	1363.9168	1439.5976	1491.9081	1565.337	1599.4246	1637.7343	3150.0394	3202.4394	3615.8719	3747.6392
NC1=NC=CN=N1	Nc1nccnn1	
InChI=1S/C3H4N4/c4-3-5-1-2-6-7-3/h1-2H,(H2,4,5,7)	InChI=1S/C3H4N4/c4-3-5-1-2-6-7-3/h1-2H,(H2,4,5,7)
