12
gdb 4951	3.33548	2.52352	1.43662	4.5182	60.3	-0.2207	-0.0498	0.1709	781.6267	0.085862	-414.702156	-414.695793	-414.694848	-414.732776	23.908	
N	-0.1041139686	 1.2291696444	-0.4294158754	-0.510004
C	-0.0315598931	 0.0188146167	-0.0436145718	 0.243517
N	-1.1550815941	-0.6958334493	 0.3105553273	-0.346323
C	-1.0967634093	-2.0105648241	 0.7319251947	-0.060293
C	 0.0731624506	-2.6436907822	 0.8110064233	 0.001855
O	 1.2614750762	-2.0233895372	 0.4804425726	-0.212467
C	 1.2867528472	-0.7312750692	 0.0576188148	 0.386499
O	 2.3296952908	-0.2131469476	-0.2245344867	-0.314773
H	 0.837880864	 1.5605819087	-0.6392467748	 0.247945
H	-2.0349674947	-0.2070247467	 0.2470347907	 0.271274
H	-2.0289223041	-2.491542329	 0.98938587	 0.144821
H	 0.2151872651	-3.6640773445	 1.1274434654	 0.14795
105.9975	177.0109	355.3854	408.5429	515.3045	519.7838	537.4969	561.0374	584.0973	729.4719	735.5613	789.1383	859.8209	889.2351	941.5816	1053.2927	1067.6897	1141.4994	1192.9659	1264.3936	1402.4845	1432.5072	1479.4072	1721.8667	1727.5118	1847.641	3244.8287	3277.5953	3494.491	3631.4205
N=C1NC=COC1=O	[NH][C]1NC=COC1=O	
InChI=1S/C4H4N2O2/c5-3-4(7)8-2-1-6-3/h1-2H,(H2,5,6)	InChI=1S/C4H4N2O2/c5-3-4(7)8-2-1-6-3/h1-2H,(H2,5,6)
