12
gdb 4714	6.85088	1.34791	1.12736	6.6446	65.91	-0.2229	-0.0616	0.1613	963.4328	0.084338	-414.694901	-414.688016	-414.687072	-414.726003	24.85	
N	 0.1574637657	 1.3411203191	 0.1585988883	-0.596031
C	-0.0551601996	-0.0072807945	 0.0472545689	 0.366661
C	-1.1756878453	-0.80584223	 0.0014001219	-0.174774
N	-0.7791676869	-2.1158794217	-0.0281461685	-0.255021
C	 0.520306937	-2.0929279444	-0.0023437723	 0.276559
O	 1.0286025008	-0.8012104401	 0.0457629553	-0.188021
C	 1.5052614799	-3.1682708438	-0.0195642985	 0.080455
O	 1.2394881355	-4.3467079754	-0.0619171578	-0.260437
H	 1.0481919512	 1.6627012765	-0.1926337843	 0.272552
H	-0.6153028493	 1.9189374245	-0.1354792042	 0.272665
H	-2.2125498611	-0.5109590715	-0.0109051167	 0.124432
H	 2.5505346022	-2.7925324687	 0.0111515079	 0.08096
121.4772	187.7498	245.8579	263.1467	328.0391	372.5058	501.1814	560.8073	687.9191	708.1585	730.1872	802.9294	804.3723	970.914	1018.5166	1033.5635	1077.869	1128.3574	1255.6009	1303.4902	1423.7555	1452.5634	1552.8611	1608.3086	1661.2718	1795.793	2903.318	3265.4442	3574.0716	3680.1049
NC1=CN=C(O1)C=O	Nc1cnc(o1)C=O	
InChI=1S/C4H4N2O2/c5-3-1-6-4(2-7)8-3/h1-2H,5H2	InChI=1S/C4H4N2O2/c5-3-1-6-4(2-7)8-3/h1-2H,5H2
