15
gdb 4188	4.31492	1.44454	1.38027	1.3157	65.45	-0.2292	0.0146	0.2438	927.0499	0.118048	-399.717353	-399.709901	-399.708957	-399.748974	28.249	
O	-0.1680508396	 1.3280053951	-0.0161763699	-0.394315
N	 0.0045246148	-0.0716591922	 0.0204322221	-0.269146
C	-1.1131967087	-0.6634524365	-0.0561153134	 0.456118
C	-2.5771163609	-0.2451118741	-0.0442900346	-0.325588
C	-2.9354125083	-1.7402198453	 0.0763015134	-0.09777
C	-2.3850735415	-2.4983432784	-1.0739804692	 0.116991
O	-2.3688628806	-1.9153558881	-2.3417337371	-0.41976
C	-1.4133545525	-2.1167906057	 0.0255119868	-0.227783
H	 0.7372421773	 1.6435157846	 0.0737906455	 0.304974
H	-2.81285138	 0.3355029443	 0.8513284576	 0.128361
H	-2.9540562395	 0.2721930576	-0.9281111818	 0.135072
H	-3.6984599578	-2.1443299415	 0.728770781	 0.102187
H	-2.6275165018	-3.5623524016	-1.0671664187	 0.095501
H	-1.5254183081	-2.1223490913	-2.7578292878	 0.292756
H	-0.8446405528	-2.8576893368	 0.5735364161	 0.102402
88.8592	208.6218	234.7834	254.9794	298.4449	361.9995	463.8802	496.8241	519.3383	632.5704	708.8659	735.8358	822.4049	872.3945	932.8254	957.4153	973.0695	994.7932	1013.1697	1047.3537	1083.9418	1139.6953	1177.1667	1208.5898	1236.6201	1283.7141	1303.023	1333.1601	1412.1475	1440.9312	1468.5561	1786.8821	3074.2036	3093.1511	3129.0975	3192.3027	3202.963	3811.3087	3821.217
ON=C1CC2C(O)C12	ON=C1C[C@H]2[C@@H](O)[C@@H]12	
InChI=1S/C5H7NO2/c7-5-2-1-3(6-8)4(2)5/h2,4-5,7-8H,1H2	InChI=1S/C5H7NO2/c7-5-2-1-3(6-8)4(2)5/h2,4-5,7-8H,1H2/t2-,4-,5-/m1/s1
