14
gdb 3238	5.35737	2.71072	2.33645	2.6057	56.36	-0.221	0.0688	0.2898	604.2059	0.113322	-324.473588	-324.467734	-324.46679	-324.502715	23.505	
O	-0.0351719177	 1.3875160108	 0.0495757805	-0.452575
C	 0.0283539171	 0.0103203166	-0.0011173527	 0.383924
C	-0.2622040689	-0.8081178539	-1.2280899966	-0.370386
C	-1.0965977769	-0.9793767587	 0.0279757891	-0.056938
N	-0.4900438122	-1.7549489163	 1.1862479257	-0.134947
C	 0.8556345866	-2.2560796791	 0.8370498541	-0.24703
C	 0.6861687285	-0.8178047403	 1.1306194886	-0.105323
H	 0.7143223134	 1.744427027	-0.440561427	 0.287954
H	-0.8029090785	-0.2397376696	-1.9796694402	 0.122629
H	 0.4010722352	-1.5602687953	-1.6420263141	 0.111943
H	-2.1710953923	-0.8532469005	 0.0328374677	 0.112855
H	 1.2709544006	-2.8729052877	 1.6298835213	 0.123918
H	 1.0770306446	-2.6199418556	-0.1595685592	 0.119818
H	 1.0502161105	-0.3407121374	 2.0355091526	 0.104158
230.2979	280.2474	347.8297	410.8895	470.1429	512.6439	618.9051	680.0817	756.7419	812.3643	828.8503	895.5835	947.1354	976.9483	998.781	1011.7398	1041.6615	1063.3989	1092.0501	1110.9212	1135.0804	1195.5252	1223.2748	1240.0789	1298.4167	1335.7039	1412.74	1486.7316	1521.4186	3117.5594	3129.8327	3159.0456	3199.0517	3205.0564	3211.3522	3784.3857
OC12CC1N1CC21	O[C@]12C[C@H]1N1C[C@@H]21	
InChI=1S/C5H7NO/c7-5-1-3(5)6-2-4(5)6/h3-4,7H,1-2H2	InChI=1S/C5H7NO/c7-5-1-3(5)6-2-4(5)6/h3-4,7H,1-2H2/t3-,4+,5-,6?/m1/s1
