15
gdb 2401	5.28923	2.05475	1.81323	3.0469	57.34	-0.2401	0.0712	0.3113	725.7276	0.124559	-345.602641	-345.59584	-345.594896	-345.633382	24.974	
O	-0.1606150843	 1.4266291995	-0.0229041952	-0.419432
C	-0.0526723798	 0.0349008767	 0.0378928912	 0.043169
C	-0.5498442644	-0.7022082389	 1.2632478885	-0.395242
C	-1.3382415664	-0.7137001857	-0.016452194	 0.288268
C	-2.7157435664	-0.1281322358	-0.2988936023	-0.127725
O	-3.018066139	-1.2293546038	-1.1892050805	-0.277644
C	-1.7500247493	-1.8665041244	-0.9233748534	-0.139501
H	 0.512511162	 1.8056516278	 0.552005627	 0.29067
H	 0.8018922192	-0.38871628	-0.492557893	 0.087534
H	-0.0345937869	-1.6076510959	 1.5699130769	 0.114609
H	-0.9409327076	-0.0983857735	 2.0768185052	 0.117993
H	-3.4047456959	-0.0924515807	 0.5551218192	 0.098284
H	-2.7223335711	 0.8391900345	-0.8136562227	 0.118745
H	-1.1544265273	-2.002304785	-1.8360007309	 0.10158
H	-1.8756386129	-2.8390340949	-0.4277309961	 0.098693
97.5792	180.1193	213.2348	288.7744	348.1976	436.2379	479.0585	586.722	805.9911	855.0872	875.4275	892.3469	961.3446	987.9079	1025.9741	1032.1552	1047.8186	1100.7397	1130.4776	1148.863	1160.2058	1175.9682	1226.3379	1292.6108	1304.9656	1324.2839	1387.5702	1430.9709	1503.5365	1510.9172	1536.0471	2995.288	3013.1285	3037.6914	3065.1032	3085.6197	3117.8235	3207.4896	3805.5738
OC1CC11COC1	O[C@H]1CC21COC2	
InChI=1S/C5H8O2/c6-4-1-5(4)2-7-3-5/h4,6H,1-3H2	InChI=1S/C5H8O2/c6-4-1-5(4)2-7-3-5/h4,6H,1-3H2/t4-/m0/s1
