13
gdb 4897	6.51706	1.27879	1.0851	3.8584	56.24	-0.2175	0.0197	0.2371	1003.9844	0.096017	-435.782092	-435.774823	-435.773879	-435.813955	26.099	
O	 0.4685860681	 0.7432490281	-0.7769772554	-0.401877
C	-0.0476712524	 0.0907357935	 0.3668988423	-0.169354
C	-1.4149826818	-0.452104994	 0.1131306029	 0.310052
C	-2.1105931441	-0.6480756251	-1.0150651512	-0.201114
N	-3.342112908	-1.1816999759	-0.627959712	-0.361333
C	-3.3996998368	-1.3106507563	 0.7404387758	 0.476832
O	-4.2780955373	-1.7211394443	 1.446204702	-0.396316
O	-2.1738145919	-0.844010072	 1.1980613055	-0.243495
H	-0.0860136191	 1.5126010645	-0.9463751726	 0.288494
H	 0.655764774	-0.7184311128	 0.5971662648	 0.140511
H	-0.0762198734	 0.743872583	 1.252945025	 0.119613
H	-1.839114168	-0.4747046291	-2.0409791675	 0.15934
H	-4.1112230193	-1.4350441794	-1.2217683197	 0.278647
73.1412	166.4716	193.6053	243.5356	346.0151	388.8289	435.1056	548.0756	605.3699	698.1244	740.2374	772.4766	774.3893	929.622	969.2441	998.5504	1068.4859	1091.7082	1129.3427	1201.5437	1255.5346	1330.9083	1388.0774	1403.2074	1424.0676	1500.4835	1715.7504	1902.6965	2989.1513	3053.064	3301.3024	3701.1298	3807.4507
OCC1=CNC(=O)O1	OCc1c[nH]c(=O)o1	
InChI=1S/C4H5NO3/c6-2-3-1-5-4(7)8-3/h1,6H,2H2,(H,5,7)	InChI=1S/C4H5NO3/c6-2-3-1-5-4(7)8-3/h1,6H,2H2,(H,5,7)
