14
gdb 4399	3.6306	2.07212	1.32044	4.6664	72.29	-0.189	-0.0253	0.1637	871.2372	0.108979	-378.762269	-378.75545	-378.754506	-378.793013	26.665	
N	 0.1002023291	 1.3463827565	 0.1747848917	-0.561358
C	-0.0594416216	-0.0118696793	 0.061891117	 0.453191
C	-1.2370755186	-0.6917737352	 0.0328039186	-0.284551
C	-1.1732624453	-2.1160855987	-0.0130371336	-0.047751
C	 0.0117370878	-2.773711302	-0.0325158626	-0.187434
C	 1.2559600368	-2.0482104112	-0.0096343983	 0.382585
N	 2.4168658451	-2.5630994373	-0.0278340444	-0.543026
O	 1.1324598504	-0.6377631024	 0.0334539095	-0.270806
H	 0.990239715	 1.6986988657	-0.1444212966	 0.265383
H	-0.6917356168	 1.908314277	-0.0943682516	 0.265724
H	-2.1771146647	-0.1584869327	 0.0547879735	 0.091676
H	-2.1018282396	-2.6777276061	-0.0338249597	 0.107468
H	 0.0879249053	-3.8514691602	-0.0680109923	 0.114886
H	 3.136674277	-1.8417018939	-0.0020902711	 0.214014
137.2365	185.5863	316.4399	355.2286	414.7469	483.8612	511.1825	529.1928	550.1294	669.4088	718.2469	747.634	759.7668	808.141	836.4252	886.6437	990.6339	993.0699	1029.7229	1100.2627	1116.1311	1169.0671	1254.0329	1328.8389	1422.0638	1454.9077	1590.4382	1637.6098	1671.6182	1748.289	3182.0769	3223.7073	3235.2882	3497.9924	3583.473	3697.2938
NC1=CC=CC(=N)O1	NC1=CCC=C([NH])O1	
InChI=1S/C5H6N2O/c6-4-2-1-3-5(7)8-4/h1-3,6H,7H2	InChI=1S/C5H7N2O/c6-4-2-1-3-5(7)8-4/h2-3,6H,1,7H2
