16
gdb 3577	4.78639	2.83227	2.41347	0.8987	63.71	-0.2085	0.069	0.2774	630.0485	0.136945	-288.53378	-288.527585	-288.52664	-288.563394	24.508	
C	-0.0807498544	 1.5567955533	-0.0315264561	-0.322305
N	 0.1740157785	 0.1217705677	 0.0302321127	-0.058808
C	 1.295630974	-0.6648755261	-0.3842017519	-0.064597
C	 2.7158192302	-0.2238139263	 0.1217822551	-0.066151
C	 2.7385969227	 1.0236136017	 0.962027009	-0.309407
C	 2.2057292715	-0.2526383314	 1.5535163077	-0.066164
C	 0.7911772122	-0.6934606448	 1.0317728066	-0.064589
H	 0.5992675287	 2.0633395648	-0.7242814265	 0.126709
H	-1.1036589997	 1.7192554012	-0.3925917134	 0.114768
H	 0.0019601338	 2.0294901975	 0.9526675985	 0.126708
H	 1.1718055288	-1.3916103558	-1.181193993	 0.091777
H	 3.6201439363	-0.6745880289	-0.2662288225	 0.087499
H	 3.7307493867	 1.2854037609	 1.32076747	 0.112537
H	 2.1192927845	 1.8835003587	 0.7586832879	 0.112746
H	 2.6669110173	-0.728438959	 2.4093654533	 0.087499
H	 0.2007869089	-1.4466380635	 1.5444479527	 0.091777
135.0483	254.73	257.0937	357.8743	487.1641	614.0638	696.0605	708.1723	722.592	755.3893	847.3344	884.9703	910.9245	939.2648	956.733	1017.3678	1027.6981	1057.5402	1061.0907	1078.9725	1086.8515	1140.7339	1174.1854	1179.6049	1252.4594	1266.9979	1283.0027	1325.4547	1409.8657	1457.1174	1485.732	1505.0699	1517.0785	3012.0355	3064.5771	3098.0545	3136.8105	3147.0911	3157.7416	3189.1735	3200.0303	3252.0067
CN1C2C3CC3C12	CN1[C@H]2[C@H]3C[C@H]3[C@@H]12	
InChI=1S/C6H9N/c1-7-5-3-2-4(3)6(5)7/h3-6H,2H2,1H3	InChI=1S/C6H9N/c1-7-5-3-2-4(3)6(5)7/h3-6H,2H2,1H3/t3-,4+,5-,6+,7?
