11
gdb 2821	4.67602	1.97267	1.5113	2.3004	54.08	-0.2644	-0.0483	0.2161	757.3833	0.075445	-343.19541	-343.188627	-343.187683	-343.226442	23.635	
O	-0.2640349626	 0.3187070153	 0.7591059288	-0.240953
C	 0.2822793255	 0.7635079879	-0.2167480987	 0.147811
C	 1.3828029328	 1.7756991534	-0.1420087016	-0.042923
O	 2.3004539774	 1.7736461393	-1.2349342801	-0.223215
C	 1.4339704103	 2.9001487469	-1.1209395238	-0.140334
C	 0.4400420372	 3.0989616901	-2.1413419375	 0.328729
C	-0.3800749076	 3.312130882	-2.9931524009	-0.408714
H	 0.0199812643	 0.4558994793	-1.2498194752	 0.105391
H	 1.8092836178	 1.9336848622	 0.8474663172	 0.125024
H	 1.9272457455	 3.8076127425	-0.7731324956	 0.134932
H	-1.1069926006	 3.4913317512	-3.7472158527	 0.21425
85.6943	158.7915	199.7662	306.8249	323.9736	476.576	555.7646	563.9925	642.1617	685.4863	804.3372	865.6334	950.8455	1027.52	1038.9216	1121.4027	1150.392	1249.8305	1331.2989	1389.5713	1431.692	1828.3652	2243.3111	2931.9527	3114.3111	3138.3848	3499.6285
O=CC1OC1C#C	O=C[C@H]1O[C@H]1C#C	
InChI=1S/C5H4O2/c1-2-4-5(3-6)7-4/h1,3-5H	InChI=1S/C5H4O2/c1-2-4-5(3-6)7-4/h1,3-5H/t4-,5+/m0/s1
