13
gdb 4290	3.85531	2.02662	1.32835	4.9742	64.41	-0.2103	-0.0115	0.1987	846.298	0.098756	-394.832837	-394.826381	-394.825436	-394.863383	24.846	
O	-0.075639458	 1.313067936	 0.0100876141	-0.41122
C	 0.0419610274	-0.0260649166	 0.0025943126	 0.504037
N	 1.1874103929	-0.600014494	-0.0068375835	-0.429314
C	 1.2494616835	-2.0121016281	-0.0143903947	 0.326359
N	 2.3520189719	-2.6643068563	-0.0239066512	-0.543016
C	-0.0317838501	-2.7239210913	-0.0107690533	-0.128297
C	-1.1861596966	-2.0434927165	-0.0007561623	-0.009921
N	-1.1678908078	-0.6550346902	 0.0062340534	-0.361094
H	 0.8299691436	 1.6541631505	 0.0067141747	 0.314482
H	 3.1271533716	-1.9979571133	-0.0248794543	 0.206697
H	-0.0166708552	-3.8049819514	-0.0163778917	 0.119716
H	-2.1675182518	-2.499148557	 0.0024663202	 0.135791
H	-2.0111017512	-0.1064687119	 0.013851376	 0.275781
128.7455	204.5882	358.8075	379.0536	453.6961	508.5811	537.9661	540.9913	562.6445	697.3523	757.7613	772.2284	829.2961	902.0306	951.5356	963.1617	997.7136	1060.2743	1154.0238	1208.1937	1245.2033	1333.9673	1381.5633	1434.4817	1551.3314	1644.7229	1698.5065	1731.1352	3220.3019	3241.3532	3456.7277	3665.8287	3775.1108
OC1=NC(=N)C=CN1	O[C@@H]1N=C([NH])C=CN1	
InChI=1S/C4H5N3O/c5-3-1-2-6-4(8)7-3/h1-2H,(H3,5,6,7,8)	InChI=1S/C4H6N3O/c5-3-1-2-6-4(8)7-3/h1-2,4-6,8H/t4-/m0/s1
