15
gdb 4519	3.6804	1.7647	1.20447	2.3309	66.12	-0.1632	0.0518	0.215	956.07	0.120444	-395.996906	-395.988926	-395.987982	-396.028585	30.419	
N	 0.1501961905	 1.34634564	 0.1021511916	-0.595195
C	-0.0487791852	-0.0277068568	 0.0398192306	 0.38344
C	-1.168472933	-0.8045752806	 0.0952263889	-0.350706
C	-0.6950511932	-2.1647287383	 0.0755808224	 0.255733
N	-1.4834665116	-3.3164465173	 0.1945046874	-0.613173
C	 0.6618432082	-2.1203841664	-0.0008310687	 0.191477
N	 1.6074986335	-3.1391878439	-0.0430345809	-0.60662
O	 1.0711429241	-0.772645243	-0.0092274456	-0.208992
H	 0.9795283088	 1.6384773515	-0.3994111385	 0.250926
H	-0.6565108772	 1.87127511	-0.2063899692	 0.25151
H	-2.1906266262	-0.4673169445	 0.1617009245	 0.085286
H	-2.3095170106	-3.2874663268	-0.3904976084	 0.236835
H	-0.941010621	-4.144902966	-0.0219344973	 0.244144
H	 2.2030874385	-3.1065437918	-0.8648399675	 0.236157
H	 2.2039974244	-3.1794454663	 0.7784679206	 0.239179
177.8307	187.1787	216.5198	252.6201	288.0138	306.7586	327.9906	378.9194	521.0212	601.0584	630.3036	665.839	671.7437	708.8314	737.2666	766.052	805.5345	833.7312	1015.1057	1041.5236	1100.5358	1133.2158	1209.3075	1211.5314	1314.7129	1394.2917	1483.018	1612.6753	1638.2343	1653.5814	1668.9573	1738.2789	3253.8931	3474.5816	3518.0316	3532.7266	3542.8004	3610.442	3643.9915
NC1=CC(N)=C(N)O1	Nc1cc(N)c(N)o1	
InChI=1S/C4H7N3O/c5-2-1-3(6)8-4(2)7/h1H,5-7H2	InChI=1S/C4H7N3O/c5-2-1-3(6)8-4(2)7/h1H,5-7H2
