10
gdb 3926	8.62562	2.20695	1.75732	5.1595	50.77	-0.2803	-0.074	0.2063	637.6405	0.06787	-355.497878	-355.492468	-355.491524	-355.527272	18.768	
O	-0.0430396292	-0.0346961098	-0.0000700695	-0.229678
C	-0.0071469918	 1.1572175249	 0.0088467939	 0.196881
N	 1.1796357638	 1.9245079895	 0.0021836091	-0.000624
C	 1.2788934284	 3.2899451089	 0.0118001656	-0.07051
C	 2.6193852458	 3.5305953976	-0.0008316548	-0.064702
N	 3.2803861254	 2.323654022	-0.0170404453	-0.156939
N	 2.4282638771	 1.3590146442	-0.0154088731	-0.097247
H	-0.893716522	 1.8166672874	 0.0232946171	 0.113354
H	 0.4141722889	 3.9317554868	 0.0260210306	 0.164761
H	 3.1536471937	 4.4661356785	 0.0006056464	 0.144703
132.5072	236.7515	243.9157	525.9944	633.5655	712.4445	774.0659	790.2193	876.9715	942.7423	997.8012	1025.8199	1094.0765	1109.1064	1208.3202	1279.5716	1369.3404	1421.1041	1459.0656	1545.5804	1863.0266	2978.0906	3275.5815	3295.9495
O=CN1C=CN=N1	O=Cn1ccnn1	
InChI=1S/C3H3N3O/c7-3-6-2-1-4-5-6/h1-3H	InChI=1S/C3H3N3O/c7-3-6-2-1-4-5-6/h1-3H
