14
gdb 596	12.16882	1.6735	1.59554	1.0902	49.89	-0.2659	0.0771	0.343	749.2911	0.118831	-307.536544	-307.529757	-307.528812	-307.567353	23.19	
O	-0.0632437734	 1.3879331662	-0.0639616571	-0.42145
C	-0.057702841	-0.0276353014	-0.1617842482	-0.065822
C	-1.4333265969	-0.5263205273	 0.2696933998	-0.206745
C	-1.5247116456	-2.0308070603	 0.2510668794	 0.093492
C	-2.7437669013	-2.7403261239	-0.1533524077	-0.178894
O	-1.6252293147	-2.6518129623	-1.0367492338	-0.236456
H	 0.7796266879	 1.7149467397	-0.3911123514	 0.286728
H	 0.1424350547	-0.362708716	-1.1904061976	 0.105609
H	 0.7179546144	-0.4700325659	 0.4856416877	 0.082789
H	-1.6411840747	-0.1583094803	 1.2820893306	 0.110369
H	-2.191579586	-0.1010088941	-0.3958972868	 0.112499
H	-0.8455694418	-2.5509296377	 0.9303915292	 0.089945
H	-2.9517599684	-3.7338117113	 0.2418805367	 0.1137
H	-3.6211092231	-2.1671379353	-0.4508855809	 0.114234
90.4682	105.5471	180.6951	261.226	348.4979	415.8071	488.7727	780.2179	818.9203	876.7141	944.1407	1017.7968	1030.5595	1074.2318	1102.1283	1156.2033	1159.4189	1179.5149	1233.1615	1246.0147	1294.8165	1314.7064	1328.5645	1448.5656	1463.5561	1478.3682	1528.9609	1530.6116	2961.4832	3007.339	3038.1305	3077.6052	3082.2291	3096.2871	3167.1437	3832.4662
OCCC1CO1	OCC[C@H]1CO1	
InChI=1S/C4H8O2/c5-2-1-4-3-6-4/h4-5H,1-3H2	InChI=1S/C4H8O2/c5-2-1-4-3-6-4/h4-5H,1-3H2/t4-/m0/s1
