15
gdb 4929	4.794	1.50646	1.15728	2.8024	64.64	-0.1744	0.0496	0.224	993.6537	0.120157	-396.008312	-396.000349	-395.999405	-396.04073	28.775	
C	-0.06636123	 1.4089411292	 0.0119299033	-0.229249
O	-0.0095243308	-0.0107111269	 0.0235702787	-0.277904
C	-1.1974908378	-0.6501423397	 0.0110166529	 0.377569
C	-1.3683165745	-2.0067898169	 0.0279474393	-0.24294
N	-2.7585692713	-2.1719694438	 0.0181479622	-0.285969
C	-3.3130419544	-0.9362115553	-0.0097941683	 0.393195
N	-4.6895040826	-0.7369870781	-0.1129613591	-0.595306
N	-2.4001592506	 0.0147723461	-0.0041914224	-0.399558
H	 0.9711485659	 1.74833195	 0.0242812783	 0.119611
H	-0.5699056035	 1.7826191044	-0.8861319235	 0.125652
H	-0.5959997233	 1.7960288418	 0.8891166216	 0.124117
H	-0.6833913777	-2.8333774969	 0.0742865525	 0.122268
H	-3.2496728309	-3.0418024402	-0.0934737804	 0.26131
H	-5.2211386496	-1.2154034642	 0.6053432194	 0.247336
H	-4.8886023689	 0.2549271206	-0.0763590244	 0.259868
67.0713	159.1696	205.905	216.8845	242.9162	322.9022	386.4451	448.5576	528.9859	598.2124	627.6234	673.9747	724.8731	761.6354	805.2665	995.0059	1020.1105	1091.0848	1100.0016	1147.1558	1180.8302	1208.094	1270.854	1323.1445	1390.2532	1475.872	1479.5699	1504.4033	1525.1178	1598.8637	1639.5984	1651.9569	3026.6822	3089.6484	3132.8137	3298.6452	3523.8231	3622.9054	3675.9389
COC1=CNC(N)=N1	COc1c[nH]c(N)n1	
InChI=1S/C4H7N3O/c1-8-3-2-6-4(5)7-3/h2H,1H3,(H3,5,6,7)	InChI=1S/C4H7N3O/c1-8-3-2-6-4(5)7-3/h2H,1H3,(H3,5,6,7)
