8
gdb 167	10.29348	9.86616	5.03764	2.79	35.01	-0.2705	0.0059	0.2764	264.8693	0.059902	-242.205627	-242.202078	-242.201134	-242.231775	11.923	
N	 0.0068637129	 1.3543886388	 0.0098030736	-0.173898
C	 1.2877308849	 1.7751224177	-0.0006303393	 0.035075
N	 2.1022228334	 0.7378995984	-0.014383726	-0.258364
C	 1.2386759646	-0.3171902112	-0.011553585	 0.044405
N	-0.0452811419	 0.0014633793	 0.0029412768	-0.21032
H	-0.8459890948	 1.8890884125	 0.0211917297	 0.283792
H	 1.569426308	 2.8172545796	 0.0022548317	 0.148551
H	 1.5661064428	-1.3457822952	-0.0204190516	 0.130759
557.754	684.8253	702.9204	854.5053	912.0274	960.2888	993.3504	1084.0514	1147.0893	1186.8149	1278.9991	1321.8153	1392.6012	1466.3028	1557.0241	3260.3955	3266.2964	3666.9581
N1C=NC=N1	[nH]1cncn1	
InChI=1S/C2H3N3/c1-3-2-5-4-1/h1-2H,(H,3,4,5)	InChI=1S/C2H3N3/c1-3-2-5-4-1/h1-2H,(H,3,4,5)
