16
gdb 665	5.91086	3.28043	3.20017	0.1799	59.83	-0.2481	0.0932	0.3413	534.5684	0.144219	-234.469383	-234.46358	-234.462636	-234.498209	22.427	
C	-0.0314151773	 1.551617592	 0.0244255702	-0.414428
C	 0.0878624517	 0.0424576443	 0.0716128609	 0.017759
C	 1.336235703	-0.7486589578	-0.2203396255	-0.061929
C	 2.5934248196	-0.0560694122	 0.3231820736	-0.224533
C	 1.9621862112	-0.0611605119	 1.7530597833	-0.224511
C	 0.7152163123	-0.7535860921	 1.1861783853	-0.061948
H	 0.8567017632	 2.054129123	 0.4162354327	 0.119405
H	-0.177472201	 1.8987269976	-1.0045915452	 0.113964
H	-0.8889098778	 1.8932013497	 0.6149628339	 0.113981
H	-0.7947510788	-0.4616711551	-0.3199147776	 0.080421
H	 1.3415398918	-1.5380569901	-0.963424057	 0.07716
H	 3.4790921308	-0.6927947868	 0.2675374628	 0.10058
H	 2.8446171828	 0.9165306259	-0.1126084748	 0.093169
H	 2.5195110275	-0.7004450749	 2.441263049	 0.100591
H	 1.8068072115	 0.9082099165	 2.2379527141	 0.093159
H	 0.1717373494	-1.5473580282	 1.6860862442	 0.07716
176.2228	244.7172	255.7887	384.9595	535.6943	708.0578	718.8669	787.2396	791.1108	885.9491	934.1769	936.8926	985.68	995.0244	1022.4921	1054.2636	1063.087	1098.7769	1142.3028	1156.1355	1211.3689	1223.8499	1246.4419	1263.7124	1306.4615	1346.5261	1414.2729	1443.369	1476.2115	1500.5518	1501.0086	1507.1933	3031.2755	3042.3857	3050.3287	3086.8709	3092.6235	3106.1625	3111.4918	3123.5682	3164.7055	3177.0642
CC1C2CCC12	C[C@H]1[C@H]2CC[C@@H]12	
InChI=1S/C6H10/c1-4-5-2-3-6(4)5/h4-6H,2-3H2,1H3	InChI=1S/C6H10/c1-4-5-2-3-6(4)5/h4-6H,2-3H2,1H3/t4-,5+,6-
