17
gdb 2711	14.79627	0.80374	0.79071	3.0473	63.	-0.2517	-0.0215	0.2302	1400.3342	0.145639	-346.853173	-346.844374	-346.84343	-346.887557	28.752	
C	-0.0060522218	 1.4087471147	-0.1215398018	-0.22972
O	-0.0040526304	 0.0025276839	-0.1799664689	-0.23046
C	-1.2706133737	-0.560272501	 0.0714434856	-0.044296
C	-1.1524951092	-2.0753055518	-0.0344115621	-0.209384
C	-2.4895033199	-2.7846966934	 0.2314715143	-0.276104
C	-2.3343865857	-4.2887081773	 0.2436853758	 0.161491
O	-2.9771233947	-5.0564894268	-0.4236517799	-0.235503
H	 1.0119226319	 1.746446337	-0.3298987547	 0.129219
H	-0.6864203183	 1.8483832966	-0.8682146638	 0.104933
H	-0.3061756174	 1.7768377328	 0.8726222819	 0.103839
H	-1.6293922583	-0.2744665935	 1.0766179049	 0.08418
H	-2.013408709	-0.1814169822	-0.6524443605	 0.088589
H	-0.7823834877	-2.3309391112	-1.0334057876	 0.1233
H	-0.3943984622	-2.4167631791	 0.6806112842	 0.114591
H	-2.8649458421	-2.4890390772	 1.2229602197	 0.119911
H	-3.2494011601	-2.5194194799	-0.5094841271	 0.123819
H	-1.5467767214	-4.6583203715	 0.9428893399	 0.071595
52.7383	67.0776	109.9952	120.5284	147.374	234.8042	290.7578	345.9315	466.8291	532.0549	756.5005	815.8449	924.9208	983.7004	1001.2204	1054.4693	1107.3219	1153.4496	1166.2613	1182.237	1221.9855	1223.3566	1268.1125	1291.3339	1315.0762	1358.7763	1426.794	1430.8605	1464.6399	1482.0875	1485.8481	1496.8706	1506.1362	1532.2548	1838.4847	2849.9707	2938.9773	2965.8622	2969.8331	3004.6866	3012.0923	3037.9353	3077.8766	3098.9842	3115.2113
COCCCC=O	COCCCC=O	
InChI=1S/C5H10O2/c1-7-5-3-2-4-6/h4H,2-3,5H2,1H3	InChI=1S/C5H10O2/c1-7-5-3-2-4-6/h4H,2-3,5H2,1H3
