8
gdb 59	11.40916	4.14704	3.0415	3.7167	38.29	-0.2629	-0.0277	0.2352	390.4619	0.054731	-245.997884	-245.992256	-245.991312	-246.026404	18.527	
N	-0.0413393221	 1.3364778946	 0.0087787157	-0.519784
C	 0.0656844318	-0.0224966436	 0.0011423448	 0.29045
O	 1.1242026913	-0.6177774489	-0.0116131245	-0.330056
C	-1.2228275614	-0.7087485678	 0.0097190711	 0.260978
C	-2.263186269	-1.3109562945	 0.016438136	-0.455451
H	 0.8041486822	 1.8831010437	 0.003741628	 0.269233
H	-0.9341721071	 1.7971831597	 0.0194988467	 0.269781
H	-3.1750322556	-1.8569693232	 0.0223261921	 0.214849
113.6241	187.6045	252.2908	487.5369	568.9883	599.6227	664.6818	689.5412	773.6595	796.1379	1090.6671	1336.0643	1608.7476	1781.2225	2227.6778	3496.5307	3603.5474	3745.9704
NC(=O)C#C	NC(=O)C#C	
InChI=1S/C3H3NO/c1-2-3(4)5/h1H,(H2,4,5)	InChI=1S/C3H3NO/c1-2-3(4)5/h1H,(H2,4,5)
