14
gdb 4580	5.84594	1.56079	1.24134	1.2359	67.81	-0.2381	-0.0442	0.1939	928.1787	0.108769	-378.787945	-378.781086	-378.780142	-378.819185	25.468	
C	-0.0400342325	 1.4996396317	 0.022844598	-0.470811
C	 0.0111027748	-0.003255345	 0.0140786249	 0.308655
N	 0.132881167	-0.6177401644	-1.1772102969	-0.280925
C	 0.1785233034	-1.9395470039	-1.1928458457	-0.083523
C	 0.1023934957	-2.681764814	-0.0033513799	 0.403464
O	 0.1523230431	-4.0267948026	-0.0602521816	-0.41417
N	-0.0174437304	-2.0985373199	 1.1775320735	-0.335859
C	-0.0624530132	-0.7608500822	 1.1793670374	-0.067168
H	 0.8674189574	 1.9199512515	-0.4225403577	 0.140839
H	-0.8857741243	 1.8611969518	-0.5708734396	 0.140836
H	-0.1390992458	 1.8894294151	 1.0391647289	 0.121647
H	 0.2767139119	-2.4433309962	-2.1501597905	 0.123953
H	 0.0853645874	-4.3411634138	 0.8523456597	 0.300879
H	-0.1609556245	-0.2815051581	 2.1500283294	 0.112181
82.6562	131.9683	308.6947	350.7034	428.023	439.2283	495.3826	513.0275	575.7425	661.3251	768.4124	791.4324	893.9747	919.0793	958.0509	1005.8944	1042.9094	1063.6856	1177.9454	1259.6815	1278.4729	1312.4489	1355.4423	1414.4305	1429.1882	1476.0109	1495.3915	1521.1256	1597.1694	1640.7445	3039.6609	3099.1456	3122.1481	3159.8813	3171.3173	3763.7259
CC1=NC=C(O)N=C1	Cc1ncc(O)nc1	
InChI=1S/C5H6N2O/c1-4-2-7-5(8)3-6-4/h2-3H,1H3,(H,7,8)	InChI=1S/C5H6N2O/c1-4-2-7-5(8)3-6-4/h2-3H,1H3,(H,7,8)
