19
gdb 2339	5.37569	1.46769	1.28926	0.9115	68.75	-0.24	0.093	0.3331	1007.1546	0.170037	-310.902708	-310.894273	-310.893329	-310.935642	30.171	
C	-0.0151856545	 1.4700302492	-0.0548762575	-0.384879
C	-0.1893403064	-0.0164980653	-0.3144610549	-0.029967
O	 1.0474950156	-0.5382221712	-0.7734603744	-0.246283
C	 1.0066037372	-1.9021886859	-1.0456895622	 0.132502
C	 0.4674556428	-2.3754356106	-2.3768661441	-0.323521
C	 1.9563172353	-2.4239162548	-2.0823148716	-0.027979
C	 2.9091133266	-1.4925014889	-2.7980722542	-0.395532
H	 0.7607761328	 1.640426428	 0.6967869332	 0.126613
H	 0.2785800789	 1.9879524873	-0.9724471799	 0.124664
H	-0.9513301613	 1.9065560446	 0.3059499495	 0.113768
H	-0.4977766085	-0.5371413246	 0.6072024095	 0.085345
H	-0.9757676235	-0.195108698	-1.0642074828	 0.089824
H	 0.8083510109	-2.522896716	-0.169651111	 0.077833
H	-0.0989906733	-3.2993514577	-2.4231825913	 0.106746
H	 0.1346837577	-1.6031846536	-3.0632905261	 0.113596
H	 2.3601949507	-3.4116156923	-1.874886654	 0.083036
H	 2.471544143	-0.497719826	-2.9067078318	 0.126948
H	 3.8451824684	-1.381624071	-2.2399432413	 0.11622
H	 3.1553147074	-1.8740428433	-3.794822145	 0.111067
75.9613	93.0498	133.4515	195.4917	243.7396	263.0481	319.2011	389.2728	491.7684	552.3601	753.5769	819.2343	829.5794	873.8798	895.3819	928.9707	1000.202	1020.1702	1057.1853	1091.3237	1112.0644	1148.9492	1151.3335	1185.6417	1190.5108	1197.892	1252.6237	1293.4205	1366.3441	1392.5581	1406.252	1418.747	1438.589	1483.4476	1485.538	1494.7933	1500.0486	1504.4837	1528.8713	2966.273	2998.4941	3034.5155	3044.4884	3077.2072	3091.4616	3118.7072	3121.0545	3121.531	3127.7373	3141.5132	3215.4659
CCOC1CC1C	CCO[C@H]1C[C@H]1C	
InChI=1S/C6H12O/c1-3-7-6-4-5(6)2/h5-6H,3-4H2,1-2H3	InChI=1S/C6H12O/c1-3-7-6-4-5(6)2/h5-6H,3-4H2,1-2H3/t5-,6+/m1/s1
