18
gdb 1089	4.06818	1.91561	1.83111	3.6006	64.64	-0.2461	0.032	0.2781	808.3652	0.158248	-327.017113	-327.008592	-327.007648	-327.049127	31.372	
C	-0.0632726199	 1.5626668981	 0.0694473073	-0.398619
C	-0.0034536338	 0.0244856039	 0.0528665403	 0.279331
C	 0.706239295	-0.4985732756	 1.3148489024	-0.398623
C	-1.4196997136	-0.5592199768	-0.038169597	-0.426641
N	 0.7195456085	-0.4344014212	-1.1533656823	-0.291445
C	 2.0059645331	-0.1451604306	-1.4694232304	 0.159124
O	 2.7702019001	 0.5361076177	-0.8143393654	-0.334831
H	 0.9442948201	 1.9807280576	 0.0872015885	 0.154338
H	-0.5820563853	 1.938549938	-0.8181171034	 0.106095
H	-0.6050097844	 1.9085392659	 0.9555157332	 0.108811
H	 0.170863417	-0.1696358616	 2.2111743444	 0.108813
H	 0.7362628413	-1.5927821213	 1.3155337057	 0.106088
H	 1.7292883586	-0.1219713357	 1.3576277404	 0.154336
H	-1.9368502495	-0.2040408032	-0.9365345814	 0.115658
H	-1.3953922246	-1.6544772932	-0.060228515	 0.115646
H	-2.0093537803	-0.2546282899	 0.8303463826	 0.127668
H	 0.2139172974	-1.016032663	-1.8028964226	 0.241877
H	 2.3014979704	-0.6156391892	-2.4304441474	 0.072373
92.9794	203.2037	204.3835	222.7329	277.8768	279.2347	319.22	347.3465	406.2389	426.672	433.7789	534.325	706.1599	831.7301	902.9484	924.1755	935.3072	966.0737	1030.6854	1058.7252	1065.4846	1202.1732	1245.8919	1248.3473	1274.694	1394.3919	1396.6336	1424.4213	1436.1449	1472.632	1486.87	1491.6165	1492.5058	1507.8469	1523.9113	1529.875	1796.284	2914.1792	3028.2977	3038.0937	3043.8267	3094.0621	3104.669	3107.3798	3120.0012	3144.375	3147.6796	3626.6012
CC(C)(C)NC=O	CC(C)(C)NC=O	
InChI=1S/C5H11NO/c1-5(2,3)6-4-7/h4H,1-3H3,(H,6,7)	InChI=1S/C5H11NO/c1-5(2,3)6-4-7/h4H,1-3H3,(H,6,7)
