13
gdb 2651	6.49441	1.1326	1.00235	4.3241	59.65	-0.2675	0.0018	0.2694	1114.1122	0.09914	-344.446747	-344.438486	-344.437542	-344.481848	26.059	
C	-0.2296775402	 1.1477850706	 0.2164576271	-0.49695
C	 0.0006548557	-0.2711866013	-0.0056606621	 0.044473
C	 0.190928477	-1.4448027432	-0.1932594019	 0.105015
C	 0.4046556068	-2.866555101	-0.4176324869	-0.247138
O	-0.7908709016	-3.5473511271	-0.8517879192	-0.166909
C	-1.6601405829	-3.9056909333	 0.1145692297	 0.182608
O	-2.7000030154	-4.4405027363	-0.1234423944	-0.269678
H	 0.4106867748	 1.758926127	-0.4283493057	 0.156076
H	-1.2700975601	 1.4110036004	-0.0022230997	 0.160921
H	-0.0260202419	 1.4270737263	 1.2556206713	 0.154407
H	 1.1283110547	-3.0365327686	-1.2190844159	 0.156314
H	 0.7957323893	-3.3503084567	 0.4872712776	 0.13936
H	-1.2994992063	-3.6619074867	 1.1328851902	 0.081501
17.2883	40.4341	108.5835	173.1198	194.6307	319.2047	358.0043	374.6187	491.7969	676.4091	771.2419	985.8016	1024.7154	1044.3514	1050.4648	1055.1669	1149.196	1174.4135	1296.7786	1390.853	1413.9949	1433.8552	1474.4939	1476.7337	1486.1902	1870.7279	2374.8395	2949.8622	3021.8741	3031.9895	3093.7851	3095.5801	3096.4047
CC#CCOC=O	CC#CCOC=O	
InChI=1S/C5H6O2/c1-2-3-4-7-5-6/h5H,4H2,1H3	InChI=1S/C5H6O2/c1-2-3-4-7-5-6/h5H,4H2,1H3
