11
gdb 734	9.44739	3.63796	2.67033	3.1055	46.94	-0.2565	0.011	0.2675	474.9449	0.087311	-281.505078	-281.499734	-281.49879	-281.534576	18.063	
C	-0.025849334	 1.4877125725	 0.0310671738	-0.499706
C	-0.0045921868	-0.0018086279	-0.041243382	 0.367564
N	-0.0833216676	-0.7402281129	-1.1362920233	-0.302203
C	-0.0200903265	-2.0145884592	-0.6573896938	 0.027193
N	 0.092693528	-2.1212912358	 0.6543956107	-0.212314
N	 0.1007633097	-0.8179078245	 1.0323137291	-0.230055
H	 0.8909959432	 1.8827214812	 0.4814489506	 0.141604
H	-0.1147752419	 1.8851607916	-0.9802646469	 0.165255
H	-0.8723821681	 1.8505910368	 0.6237074224	 0.141757
H	-0.0578392324	-2.8855417012	-1.2944839946	 0.124646
H	 0.1788392163	-0.5832928105	 2.0082288039	 0.276259
35.5278	266.7432	343.6524	550.3376	685.8885	696.8666	708.8017	909.9324	978.9861	989.8901	1047.3583	1065.9055	1131.2675	1210.7872	1286.4929	1313.6993	1402.9826	1422.0705	1476.6611	1484.7377	1507.5265	1594.7225	3041.2871	3095.1148	3154.4931	3260.3787	3663.1804
CC1=NC=NN1	Cc1ncn[nH]1	
InChI=1S/C3H5N3/c1-3-4-2-5-6-3/h2H,1H3,(H,4,5,6)	InChI=1S/C3H5N3/c1-3-4-2-5-6-3/h2H,1H3,(H,4,5,6)
