12
gdb 2745	4.75968	2.29186	1.76006	2.0863	52.29	-0.2685	-0.0415	0.227	687.8417	0.089771	-360.513668	-360.507291	-360.506347	-360.544494	22.032	
N	 0.133490189	 1.246202343	-0.0537226581	-0.535499
C	 0.0266991425	 0.0056115456	 0.0705152794	 0.435159
O	 0.9075549252	-0.9538477433	 0.5073936768	-0.24674
C	-0.0770895235	-2.0239589248	 0.3051038121	-0.09645
C	-1.1050828939	-0.9897855735	-0.1761243114	-0.233212
C	-2.3243394797	-0.764532539	 0.6937763437	 0.147602
O	-2.622268668	-1.4630208368	 1.626797861	-0.229828
H	 1.0579432944	 1.5773968505	 0.2265804487	 0.237103
H	 0.2766938636	-2.7407795934	-0.437527148	 0.128224
H	-0.3281337214	-2.5142269384	 1.2462527492	 0.150685
H	-1.4044176275	-1.0437497455	-1.2266557159	 0.133358
H	-2.9261687206	 0.1233464055	 0.4097626725	 0.109597
82.0032	130.837	209.7748	284.475	439.6426	598.2755	657.5214	715.4963	824.5892	862.2062	907.9784	957.7033	1000.509	1007.2079	1070.1337	1105.5057	1160.8481	1181.3885	1225.418	1318.1946	1354.7901	1417.7557	1513.8338	1810.0584	1837.8927	2925.7967	3081.6968	3087.0502	3153.0562	3483.318
N=C1OCC1C=O	[NH][C]1OC[C@H]1C=O	
InChI=1S/C4H5NO2/c5-4-3(1-6)2-7-4/h1,3,5H,2H2	InChI=1S/C4H5NO2/c5-4-3(1-6)2-7-4/h1,3,5H,2H2/t3-/m1/s1
