9
gdb 774	9.51486	3.93819	2.78534	2.7251	39.58	-0.2283	0.0138	0.2421	424.7483	0.064276	-317.447668	-317.44298	-317.442036	-317.475538	16.736	
O	 0.0109092609	-0.0521824038	 0.0029510269	-0.41591
C	-0.0148609087	 1.1580896029	 0.0097972552	 0.467439
N	-1.1241680074	 2.0176831218	 0.0287559817	-0.343992
C	-0.6793720612	 3.3148546522	 0.0300294337	 0.064591
N	 0.6139537706	 3.3885818023	 0.0135056291	-0.204897
N	 1.0185705211	 2.0737648928	 0.0008974783	-0.288299
H	-2.0733398331	 1.688279249	 0.0396892362	 0.281716
H	-1.3332605159	 4.1724437102	 0.0431731748	 0.155129
H	 1.9968202337	 1.8460081325	-0.0127804758	 0.284223
215.9158	417.3792	479.4349	505.348	668.902	741.6464	753.2828	839.6975	927.4015	998.3578	1063.8574	1120.6432	1214.6196	1326.1968	1378.632	1417.5171	1620.6299	1860.6829	3269.5355	3694.1695	3700.1325
O=C1NC=NN1	O=c1[nH]cn[nH]1	
InChI=1S/C2H3N3O/c6-2-3-1-4-5-2/h1H,(H2,3,4,5,6)	InChI=1S/C2H3N3O/c6-2-3-1-4-5-2/h1H,(H2,3,4,5,6)
