15
gdb 3524	5.73595	2.59601	2.30976	1.7442	61.28	-0.2558	0.1001	0.3559	624.6638	0.126326	-308.437835	-308.432354	-308.43141	-308.466768	22.095	
C	 0.0200481618	 1.5128414598	 0.0102122136	-0.319982
O	 1.1982440701	 0.6625939017	-0.0063643679	-0.303491
C	-0.070357578	 0.0623908619	 0.003031981	 0.5626
C	-0.5893894457	-1.0235381016	 0.9567307906	-0.143987
C	-1.8314362069	-1.0921721075	 0.0142821199	-0.219712
C	-0.6085642544	-1.0128908163	-0.9521025264	-0.143986
C	 0.0962315265	-2.0440998421	-0.0103917826	-0.224427
H	-0.1288756331	 2.0703110982	 0.9339347647	 0.11803
H	-0.1473389862	 2.0805591302	-0.9040591733	 0.11803
H	-0.5774941439	-1.0242595886	 2.0464021975	 0.079679
H	-2.3676413663	-2.0436277363	 0.0143611617	 0.097291
H	-2.5155616613	-0.2400623747	 0.0259074425	 0.09495
H	-0.618562446	-1.0014556275	-2.0417332291	 0.079679
H	 1.1873355401	-2.0540233455	-0.0214075467	 0.113436
H	-0.3237207968	-3.0532374716	-0.0118017949	 0.091891
213.3996	287.6278	359.1423	475.3189	615.6105	619.0428	756.872	796.2455	869.8084	873.5189	894.2295	917.8475	969.5098	1006.3497	1018.4352	1058.9731	1079.5099	1083.5376	1110.9691	1123.2387	1124.3227	1166.2902	1184.4227	1193.3413	1236.6836	1240.6663	1254.2132	1456.4343	1494.0121	1524.8828	1566.1218	3059.6653	3062.7856	3083.039	3118.7382	3122.8812	3128.1808	3136.7807	3167.8983
C1OC11C2CC1C2	C1O[C@]21[C@H]1C[C@@H]2C1	
InChI=1S/C6H8O/c1-4-2-5(1)6(4)3-7-6/h4-5H,1-3H2	InChI=1S/C6H8O/c1-4-2-5(1)6(4)3-7-6/h4-5H,1-3H2/t4-,5+,6-
