13
gdb 3426	4.85181	3.12954	2.17195	4.8138	53.56	-0.2553	0.0343	0.2896	595.8727	0.104468	-340.650391	-340.644748	-340.643803	-340.679801	21.177	
O	 0.0135373753	-0.0346453364	-0.0222057883	-0.364384
C	 0.0062855277	 1.1680386386	-0.0080993881	 0.404866
N	-1.0939840654	 1.9835717216	 0.1075746032	-0.317669
C	-0.8155173697	 3.4005605201	 0.0162795976	-0.187543
C	 0.7115871559	 3.3975682507	 0.022578841	-0.017219
C	 1.4159595618	 2.7488741406	 1.1501157947	-0.245424
N	 1.184739124	 2.0051009346	-0.113247386	-0.147138
H	-2.0185591057	 1.5882182415	 0.1392601319	 0.259625
H	-1.1931080544	 3.838125276	-0.9173520013	 0.119044
H	-1.2466914011	 3.9652453423	 0.8523323628	 0.1195
H	 1.2233824403	 4.1374636999	-0.5830217591	 0.109986
H	 2.456617868	 2.9858201595	 1.34630285	 0.132996
H	 0.8373930932	 2.4499918111	 2.0206497315	 0.133361
122.2424	255.3168	359.5387	459.7134	493.5636	657.7266	729.0236	757.2661	806.6604	864.7037	876.4459	942.7539	998.9684	1063.7312	1085.8863	1108.3603	1116.5439	1161.8133	1211.6054	1214.6516	1287.1427	1328.8783	1395.8822	1443.761	1504.8589	1534.5476	1866.4143	3010.1539	3041.4711	3114.512	3170.2876	3207.2769	3664.4166
O=C1NCC2CN12	O=C1NC[C@H]2CN12	
InChI=1S/C4H6N2O/c7-4-5-1-3-2-6(3)4/h3H,1-2H2,(H,5,7)	InChI=1S/C4H6N2O/c7-4-5-1-3-2-6(3)4/h3H,1-2H2,(H,5,7)/t3-,6?/m0/s1
