18
gdb 544	15.80144	1.13541	1.09517	1.3185	60.77	-0.2614	0.0813	0.3427	1080.8627	0.16513	-272.837907	-272.829692	-272.828748	-272.870294	28.145	
C	 0.0241315158	 1.5530784629	 0.0100870266	-0.379996
C	-0.0089079788	 0.0225633363	 0.0022700578	-0.160583
C	-1.4304787992	-0.5501729743	 0.012791253	-0.163135
C	-1.4650683121	-2.0809251716	 0.0049785624	-0.162819
C	-2.8786827787	-2.6461282322	 0.0155043075	-0.073748
O	-2.7871364584	-4.0636863661	 0.0071079857	-0.421857
H	 1.0511863934	 1.9313658551	 0.0023028632	 0.110933
H	-0.4887251853	 1.964929222	-0.866388811	 0.112505
H	-0.4718758167	 1.9555401033	 0.9005107969	 0.112505
H	 0.5242660505	-0.3519686415	-0.8814485763	 0.095473
H	 0.5409937905	-0.3612848315	 0.8716237226	 0.095473
H	-1.9641996847	-0.1743410669	 0.8972584974	 0.091071
H	-1.9809422031	-0.165007169	-0.8572815912	 0.091071
H	-0.9445267242	-2.4659780933	-0.8807451618	 0.102955
H	-0.9277026918	-2.4753259752	 0.876426731	 0.102956
H	-3.4159180858	-2.2874245405	 0.9093231659	 0.081611
H	-3.4328792622	-2.2780154446	-0.8640188303	 0.081611
H	-3.6792286591	-4.4222470929	 0.0136680507	 0.283974
79.8803	106.1731	133.3709	155.098	243.2519	264.9816	311.7054	361.7303	494.2402	737.8306	774.1613	862.4875	898.9651	987.4747	1000.5998	1036.7263	1069.4419	1071.9791	1126.0316	1192.732	1237.4711	1237.8204	1297.7508	1300.7835	1319.0715	1335.7489	1361.3401	1402.1846	1412.5741	1465.1779	1486.1654	1490.0906	1499.0766	1501.4023	1513.187	1529.8761	2955.6377	2980.0354	3001.4139	3016.4963	3025.5302	3028.143	3029.5938	3050.1802	3073.5226	3094.5529	3100.6228	3829.5187
CCCCCO	CCCCCO	
InChI=1S/C5H12O/c1-2-3-4-5-6/h6H,2-5H2,1H3	InChI=1S/C5H12O/c1-2-3-4-5-6/h6H,2-5H2,1H3
