14
gdb 3618	4.72734	3.70968	2.95494	0.5751	55.2	-0.2337	0.0839	0.3177	525.6907	0.116348	-324.521162	-324.5163	-324.515356	-324.549478	19.753	
C	-0.0158924809	 1.4866368383	-0.0087417853	-0.176996
C	 1.531176977	 1.499249816	 0.0392682297	 0.070104
O	 2.0056020035	 1.6315309763	 1.3693496839	-0.259852
C	 1.4083242974	 0.5584020183	 2.1075851281	-0.107566
C	 0.9471491888	-0.4453800937	 1.0604575754	-0.045684
C	 1.4414912193	-0.0167173682	-0.2569872002	-0.05742
N	-0.0425121665	-0.0192098695	 0.0228701173	-0.156397
H	-0.5447547941	 1.9918873338	 0.8061645147	 0.106424
H	-0.4230538187	 1.8138030594	-0.9685494793	 0.113696
H	 2.0900428503	 2.1750284346	-0.6062138222	 0.089473
H	 2.1612186411	 0.1223683646	 2.7738269642	 0.113752
H	 0.579507721	 0.9293916531	 2.7259723645	 0.107134
H	 0.86247824	-1.4939230233	 1.3211261302	 0.105948
H	 1.9168908018	-0.6195332699	-1.020276711	 0.097384
269.3029	408.815	442.3048	657.57	699.2741	766.9426	780.8221	846.8168	860.7314	898.6978	932.6648	966.6435	978.6842	1001.42	1039.8725	1068.746	1103.4438	1120.1693	1178.5201	1187.2637	1222.3136	1231.0026	1266.2349	1296.6209	1328.3774	1355.7688	1400.5287	1495.5521	1522.5749	3009.179	3048.2125	3060.2182	3108.874	3133.7881	3184.5185	3198.379
C1C2OCC3C2N13	C1[C@H]2OC[C@@H]3[C@H]2N13	
InChI=1S/C5H7NO/c1-4-5-3(2-7-4)6(1)5/h3-5H,1-2H2	InChI=1S/C5H7NO/c1-4-5-3(2-7-4)6(1)5/h3-5H,1-2H2/t3-,4-,5-,6?/m1/s1
