15
gdb 3611	4.66484	3.79355	2.9092	0.4223	63.88	-0.2181	0.0198	0.2379	543.2178	0.128063	-271.350701	-271.345847	-271.344903	-271.378832	20.775	
C	 0.0104179241	 1.5198841008	 0.1470392651	-0.220877
C	 1.516105717	 1.5082167646	-0.0778696055	-0.065162
C	 2.2084135309	 0.321204061	 0.6488969019	-0.071808
C	 1.4714423766	-0.3721111236	 1.7441707189	-0.079542
C	 0.2298684307	-0.6543867819	 1.3346863109	-0.088598
C	 0.01602166	-0.0530289718	-0.0369553715	-0.094004
C	 1.455776353	 0.1058723402	-0.6353372381	-0.068501
H	-0.390129778	 1.910836098	 1.0884112523	 0.08944
H	-0.4901451795	 2.0018733015	-0.6968284765	 0.101431
H	 2.1163540896	 2.3488043937	-0.4054061173	 0.083462
H	 3.291800405	 0.3533805465	 0.6311417164	 0.080407
H	 1.8886928975	-0.5599844565	 2.7256554265	 0.092705
H	-0.5655519915	-1.0825826164	 1.9325364169	 0.091918
H	-0.7814139647	-0.4738884192	-0.6470998533	 0.066559
H	 1.8576226193	-0.3210254767	-1.5463483067	 0.082571
356.5012	393.3003	541.3423	687.8701	712.8429	745.0541	767.1977	788.7506	817.0009	861.8557	871.6721	929.6425	938.429	964.3514	982.6327	997.4858	1019.905	1056.5597	1072.5447	1092.1257	1119.5564	1140.671	1184.0991	1227.618	1266.6885	1274.9026	1312.8329	1362.5789	1376.0344	1486.5795	1644.0891	3039.7467	3100.0728	3123.6263	3173.9693	3175.097	3189.8585	3196.3609	3221.6026
C1C2C3C=CC1C23	C1[C@H]2[C@H]3C=C[C@@H]1[C@@H]23	
InChI=1S/C7H8/c1-2-5-6-3-4(1)7(5)6/h1-2,4-7H,3H2	InChI=1S/C7H8/c1-2-5-6-3-4(1)7(5)6/h1-2,4-7H,3H2/t4-,5+,6-,7+/m0/s1
