13
gdb 2511	3.46009	2.16016	1.39685	1.0679	61.13	-0.2613	0.0259	0.2872	825.2619	0.098959	-307.23788	-307.230076	-307.229131	-307.26963	28.086	
O	 0.0834957619	 1.3911643887	-0.0134801251	-0.412594
C	 0.051596611	-0.0124599255	 0.0354689724	-0.05991
C	-1.4107655897	-0.5590520921	 0.0135459233	-0.34755
C	-2.0898929721	-0.089656911	-1.1981422577	 0.313092
C	-2.5905919447	 0.3478339638	-2.1994834493	-0.453874
C	-1.421575802	-2.0168565262	 0.1317477135	 0.323605
C	-1.380158395	-3.2118703968	 0.242461997	-0.442033
H	-0.3427445981	 1.6601090136	-0.8364920416	 0.289372
H	 0.6082992342	-0.4772201162	-0.7902602515	 0.109164
H	 0.5187107013	-0.3120989551	 0.9769202082	 0.125763
H	-1.9204824103	-0.1234789425	 0.8840553943	 0.145886
H	-3.062610323	 0.7089223267	-3.0800240449	 0.206589
H	-1.3603957434	-4.2693306974	 0.3390177814	 0.202489
118.3448	130.3039	152.6961	201.9796	346.1289	362.2874	420.1634	492.6933	554.7586	559.8279	636.1958	643.723	659.5955	667.34	818.5847	983.9017	1031.4939	1063.3007	1092.7573	1197.356	1268.8519	1328.7929	1381.9211	1421.0871	1504.904	2234.3861	2244.4608	3006.3624	3021.0507	3105.2333	3501.1471	3503.8535	3782.3774
OCC(C#C)C#C	OCC(C#C)C#C	
InChI=1S/C6H6O/c1-3-6(4-2)5-7/h1-2,6-7H,5H2	InChI=1S/C6H6O/c1-3-6(4-2)5-7/h1-2,6-7H,5H2
