17
gdb 1188	4.62576	1.69979	1.66693	3.2052	56.14	-0.2573	0.0541	0.3115	822.4301	0.146175	-383.983835	-383.975187	-383.974242	-384.016109	31.604	
C	-0.0509736045	 1.5690478123	-0.0238447424	-0.4153
C	-0.0772855936	 0.0358330468	-0.059733688	 0.337188
O	 0.5001445951	-0.496646054	 1.1374857448	-0.488656
C	-1.5158269814	-0.5011928126	-0.0573395676	-0.065405
O	-2.1941936274	-0.1458301954	 1.1295348774	-0.4274
C	 0.7069770845	-0.511364859	-1.2561434956	-0.116131
O	 2.0704011955	-0.1451393365	-1.0515815584	-0.434006
H	 0.9772379154	 1.9314508025	 0.0515185312	 0.121378
H	-0.4946428787	 1.9902758449	-0.9324544034	 0.106671
H	-0.6239352826	 1.9221364971	 0.8354221394	 0.130239
H	 1.4537261248	-0.3775008612	 1.0500188065	 0.288508
H	-2.084001392	-0.0763869374	-0.8915515344	 0.102293
H	-1.4857620252	-1.5953423022	-0.1847687692	 0.082962
H	-1.6025539379	-0.396538815	 1.8499446357	 0.294282
H	 0.5989450115	-1.6045506636	-1.2893711224	 0.094435
H	 0.3194499351	-0.0926003573	-2.1967699191	 0.093171
H	 2.6194127815	-0.6494597497	-1.6577707445	 0.295772
110.3342	138.6771	194.1325	232.486	239.1508	295.9338	328.8224	376.0107	403.5426	426.396	453.9333	477.5612	633.036	776.6445	904.3415	920.1862	972.076	995.9299	1050.5311	1092.9243	1141.0442	1163.047	1195.3227	1229.5844	1256.5829	1305.6826	1368.5313	1390.8729	1413.2169	1441.4634	1450.8981	1488.5309	1494.6021	1501.9192	1513.0979	2972.9207	2988.1371	3030.2389	3043.3477	3075.226	3114.1911	3143.2516	3785.4951	3788.4091	3845.1765
CC(O)(CO)CO	CC(O)(CO)CO	
InChI=1S/C4H10O3/c1-4(7,2-5)3-6/h5-7H,2-3H2,1H3	InChI=1S/C4H10O3/c1-4(7,2-5)3-6/h5-7H,2-3H2,1H3
