10
gdb 200	9.27499	3.84435	2.71784	2.18	43.23	-0.2051	0.0505	0.2555	445.8144	0.075677	-301.389192	-301.38437	-301.383426	-301.417032	18.016	
O	 0.1115516646	 1.31437064	 0.1706596492	-0.423674
C	 0.074738425	-0.021755286	 0.0256779697	 0.447467
N	 0.1056148394	-0.6922873571	-1.0935581052	-0.356768
C	 0.0437852446	-2.021714386	-0.7014996734	-0.082509
C	-0.0240030095	-2.1275438141	 0.6556390053	-0.113477
N	-0.0028514919	-0.8158043987	 1.1222484845	-0.291863
H	 0.165528295	 1.6779540998	-0.7220664542	 0.314439
H	 0.0522997421	-2.8169097812	-1.4304333599	 0.108483
H	-0.0832076586	-2.9670812219	 1.3267600717	 0.126039
H	-0.0380005709	-0.5033775748	 2.0770347323	 0.271863
297.8383	404.3757	424.2247	474.9369	634.3407	681.511	714.4295	738.9482	843.1931	927.4259	1010.9513	1078.6454	1131.909	1161.5047	1218.7955	1323.4223	1377.9512	1549.1648	1564.6414	1629.3746	3255.7746	3288.6814	3679.7358	3806.6013
OC1=NC=CN1	Oc1ncc[nH]1	
InChI=1S/C3H4N2O/c6-3-4-1-2-5-3/h1-2H,(H2,4,5,6)	InChI=1S/C3H4N2O/c6-3-4-1-2-5-3/h1-2H,(H2,4,5,6)
