11
gdb 497	12.81085	1.74827	1.68822	3.3746	49.89	-0.2561	0.0191	0.2752	691.5345	0.083614	-285.276634	-285.270024	-285.269079	-285.307545	22.134	
O	 0.0553863034	 0.2128814602	-0.9157243764	-0.31857
C	 0.0489362622	 1.2558751368	-0.2980509908	 0.162687
N	 1.1211990475	 1.7868866199	 0.3495405776	-0.272402
C	 2.4398147433	 1.16650353	 0.2982326205	-0.283649
C	 3.4863467435	 2.1197344589	-0.0551533043	 0.283153
C	 4.3432895083	 2.9188259306	-0.3200143703	-0.439385
H	-0.8506188883	 1.8923701551	-0.1894560781	 0.08268
H	 1.0300212049	 2.6849739642	 0.7966538673	 0.256627
H	 2.681171735	 0.6928687489	 1.259481509	 0.143403
H	 2.3673269422	 0.3641705628	-0.4429738562	 0.179271
H	 5.1067823278	 3.6137911227	-0.5692414983	 0.206184
35.6795	154.2312	257.9632	284.7498	327.0644	518.4418	536.2642	621.9074	670.6272	762.5169	949.2628	997.7038	1032.3811	1044.5794	1204.1093	1257.2725	1372.1275	1425.848	1486.5463	1519.8326	1805.4736	2243.5363	2946.6855	3013.9882	3086.0468	3504.8368	3642.6612
O=CNCC#C	O=CNCC#C	
InChI=1S/C4H5NO/c1-2-3-5-4-6/h1,4H,3H2,(H,5,6)	InChI=1S/C4H5NO/c1-2-3-5-4-6/h1,4H,3H2,(H,5,6)
