15
gdb 2893	4.81963	2.13943	1.9252	3.1752	60.32	-0.248	0.0289	0.2769	712.6219	0.12819	-304.715963	-304.709372	-304.708428	-304.747329	23.59	
N	 0.6343379128	-1.0533329961	-0.0058988479	-0.330951
C	 0.3054592592	 0.0554108527	 0.0210138913	 0.253669
C	-0.0590948546	 1.4910697813	 0.0330514561	-0.119057
C	-0.7452631152	 1.8922373613	 1.3709300432	-0.213032
C	 0.3767090856	 2.5764472239	 2.2002007488	-0.185168
C	 1.6455571706	 2.4161121968	 1.3445221307	-0.170149
N	 1.1062668798	 2.3740092298	-0.0201113994	-0.281812
H	-0.7107866064	 1.668733811	-0.8282329185	 0.122756
H	-1.561847104	 2.5856749596	 1.1625602332	 0.119546
H	-1.1702822507	 1.0211519345	 1.8714990325	 0.127953
H	 0.1467638329	 3.634898123	 2.3416853533	 0.11572
H	 0.4949305582	 2.1276266455	 3.1883547677	 0.111542
H	 2.3420282423	 3.2525599995	 1.4482300836	 0.109499
H	 2.1791509177	 1.4922743957	 1.6213133948	 0.106227
H	 1.7891891818	 2.0672538815	-0.7044334393	 0.233258
36.912	152.4447	196.595	303.1518	470.6301	564.4374	622.9629	726.2636	765.0008	823.5866	863.8249	908.0027	929.6897	964.7516	984.6079	1069.661	1109.4396	1129.3445	1207.7903	1210.7504	1243.0051	1258.5455	1317.4542	1331.5164	1350.9172	1370.9204	1443.929	1487.4501	1504.395	1523.3169	2339.0866	2969.9308	3057.8267	3070.0441	3082.7035	3088.5636	3113.2674	3135.5489	3540.4727
N#CC1CCCN1	N#C[C@H]1CCCN1	
InChI=1S/C5H8N2/c6-4-5-2-1-3-7-5/h5,7H,1-3H2	InChI=1S/C5H8N2/c6-4-5-2-1-3-7-5/h5,7H,1-3H2/t5-/m1/s1
