17
gdb 2373	4.26655	1.83783	1.52025	1.0408	60.63	-0.2563	0.0709	0.3272	862.2825	0.145911	-346.836177	-346.827815	-346.826871	-346.86897	29.728	
C	-0.0570656134	 1.4348340972	-0.265091127	-0.40676
C	 0.0664574185	 0.0277061073	 0.3172098247	 0.100762
O	 0.6712299254	 0.0284731995	 1.6075698678	-0.427673
C	-1.286203107	-0.656842324	 0.3832763622	 0.04982
O	-1.8923976972	-1.0378209413	-0.854768224	-0.266107
C	-1.5363310919	-2.0730585609	 0.0757216175	 0.079986
C	-0.4902688046	-3.0691609708	-0.3521037953	-0.418706
H	 0.9221290116	 1.9196913018	-0.3022084633	 0.123706
H	-0.474950681	 1.3948493233	-1.2750776905	 0.138836
H	-0.7250834329	 2.0520808443	 0.3495809038	 0.10502
H	 0.7403442251	-0.5601341584	-0.3121263785	 0.093259
H	 0.1874087592	 0.6534163854	 2.1590176965	 0.278858
H	-1.9763862328	-0.1708576586	 1.0820048728	 0.073892
H	-2.4038019731	-2.5215524799	 0.5653193904	 0.087863
H	 0.3494577275	-2.5894811711	-0.8581565448	 0.130254
H	-0.1084203044	-3.6142941249	 0.5175706437	 0.128742
H	-0.9270022091	-3.7988925989	-1.0418422461	 0.128248
47.0185	135.3637	188.059	214.0082	251.6162	258.6867	353.9788	390.5862	407.6292	497.9829	562.3131	779.5471	819.7622	887.1925	953.1659	986.3572	1000.784	1067.8992	1080.3948	1117.6533	1147.0471	1171.9376	1198.3371	1268.7139	1303.2278	1331.8178	1397.5752	1401.5915	1410.6665	1420.7504	1469.165	1489.1169	1493.4256	1494.7326	1515.5583	3023.553	3041.3959	3042.4551	3076.7843	3082.4621	3101.8926	3102.767	3126.6915	3137.3117	3798.334
CC(O)C1OC1C	C[C@@H](O)[C@H]1O[C@H]1C	
InChI=1S/C5H10O2/c1-3(6)5-4(2)7-5/h3-6H,1-2H3	InChI=1S/C5H10O2/c1-3(6)5-4(2)7-5/h3-6H,1-2H3/t3-,4+,5-/m1/s1
