14
gdb 2999	5.08249	1.92729	1.5496	2.5116	54.86	-0.2484	0.0172	0.2656	794.2341	0.113102	-361.720206	-361.712809	-361.711865	-361.752122	25.275	
C	-0.0487207164	 1.4384014971	 0.1854373916	-0.332526
N	-0.4054988081	 0.0866078855	 0.5625845558	-0.313682
C	-1.0929825564	-0.7464094122	-0.2593285957	 0.37501
O	-1.4626682866	-0.4804818689	-1.3894691666	-0.381161
C	-1.362677739	-2.107783997	 0.3403097684	-0.012971
C	-0.2503327743	-2.9975514169	 0.7130279549	-0.166831
O	-1.0070343474	-2.312080136	 1.7122591605	-0.238508
H	 1.0308959894	 1.6020495512	 0.2720603424	 0.126423
H	-0.3502168265	 1.5785881438	-0.8536007655	 0.169616
H	-0.5649106154	 2.1780013142	 0.8079388996	 0.129066
H	-0.250966809	-0.2406401534	 1.5043937531	 0.260969
H	-2.3050264029	-2.5479575841	 0.0233319015	 0.125266
H	-0.3939281123	-4.0755635418	 0.6775652811	 0.131947
H	 0.772906935	-2.6509008414	 0.5823065989	 0.127381
91.5	109.5382	132.2327	203.4723	287.2696	324.2999	480.1019	607.2441	626.5914	746.6057	834.5354	875.4778	916.0687	990.1218	1082.6902	1128.7446	1154.1559	1155.0047	1167.4851	1178.1855	1254.8314	1273.9775	1391.8702	1442.4322	1495.807	1499.8448	1519.0686	1571.4581	1788.9063	3028.6291	3081.0096	3095.0115	3149.8177	3153.3782	3188.6578	3620.2192
CNC(=O)C1CO1	CNC(=O)[C@H]1CO1	
InChI=1S/C4H7NO2/c1-5-4(6)3-2-7-3/h3H,2H2,1H3,(H,5,6)	InChI=1S/C4H7NO2/c1-5-4(6)3-2-7-3/h3H,2H2,1H3,(H,5,6)/t3-/m1/s1
