9
gdb 514	28.35195	1.3265	1.27733	5.7112	52.46	-0.2849	-0.0526	0.2323	831.3517	0.060584	-284.062954	-284.056563	-284.055619	-284.092997	20.574	
O	-0.0180843009	 1.457020766	 0.0100884504	-0.400978
C	 0.0031588426	 0.0413186742	 0.0022959882	-0.224088
C	-1.3644726968	-0.4611816952	 0.0126410903	 0.142576
C	-2.486344932	-0.9058518626	 0.0209334107	 0.015759
C	-3.7560591364	-1.408295475	 0.0303325145	 0.219879
N	-4.8345676573	-1.8393153133	 0.0382994638	-0.332352
H	 0.8952875674	 1.7616910628	 0.0037053248	 0.301203
H	 0.511125294	-0.3593137975	-0.8902447515	 0.138999
H	 0.5280042493	-0.3688162994	 0.8806367388	 0.139001
106.1299	138.5462	201.2712	261.9057	356.716	503.27	576.9329	590.8213	712.3544	1017.0153	1061.2823	1152.7685	1243.6568	1255.1906	1460.981	1493.5584	2271.5401	2408.3378	2968.7621	2990.3935	3821.8052
OCC#CC#N	OCC#CC#N	
InChI=1S/C4H3NO/c5-3-1-2-4-6/h6H,4H2	InChI=1S/C4H3NO/c5-3-1-2-4-6/h6H,4H2
