13
gdb 4308	3.88212	1.98287	1.32322	5.7504	63.34	-0.26	-0.0704	0.1896	866.3268	0.095537	-398.662078	-398.655174	-398.654229	-398.693635	24.865	
C	-0.0254747624	 1.5041684267	 0.0072523647	-0.477694
C	 0.0030358532	 0.0029301393	-0.0001073513	 0.333969
N	-0.0314395106	-0.6010642634	-1.1563829606	-0.369249
C	-0.0083919323	-1.9749912531	-1.22942086	 0.443296
O	-0.0352261657	-2.6385062001	-2.2198770911	-0.324482
O	 0.0548628641	-2.7031702083	 0.0100739986	-0.205684
C	 0.0884733571	-2.0542815181	 1.167377087	 0.114485
C	 0.0658750395	-0.7082183637	 1.2446959431	-0.232983
H	 0.8666025241	 1.8987228842	 0.5069079153	 0.145457
H	-0.0710494905	 1.8837860873	-1.0130976382	 0.158028
H	-0.8924401207	 1.8647615675	 0.5725346399	 0.145589
H	 0.1351332655	-2.7255763673	 2.0195697091	 0.15104
H	 0.0940284588	-0.1998668709	 2.1981297637	 0.118228
85.9498	110.4048	202.6012	318.2398	396.6957	507.1988	534.7953	588.7492	638.6602	688.366	797.381	802.7138	806.2096	957.7186	979.0279	993.06	1054.3883	1110.4733	1119.6931	1286.9867	1296.7458	1397.8682	1462.4225	1471.8335	1477.7107	1564.5358	1688.7607	1882.5963	3037.4407	3092.7883	3161.5502	3187.0846	3235.3597
CC1=NC(=O)OC=C1	Cc1nc(=O)occ1	
InChI=1S/C5H5NO2/c1-4-2-3-8-5(7)6-4/h2-3H,1H3	InChI=1S/C5H5NO2/c1-4-2-3-8-5(7)6-4/h2-3H,1H3
