17
gdb 4926	6.58371	1.23492	1.05366	2.3925	72.66	-0.1822	0.0514	0.2337	1122.4876	0.142098	-363.891492	-363.883098	-363.882154	-363.9244	30.362	
C	-0.0276589947	 1.4012181939	-0.0171402124	-0.239264
O	 0.029693313	-0.0081183628	-0.0461071212	-0.261918
C	 0.6346763939	-0.5853079082	 1.025758098	 0.370277
C	 1.1986886765	 0.0090327058	 2.1345965372	-0.232158
N	 1.6783582988	-1.0181340695	 2.929394405	-0.311407
C	 1.4295514201	-2.2336679117	 2.3481975227	 0.34774
C	 1.8406930439	-3.5174185036	 2.9907633301	-0.501508
C	 0.7783892	-1.9949887114	 1.1573452955	-0.36806
H	 0.9789651139	 1.8426902918	 0.0115537231	 0.11286
H	-0.5342857346	 1.7178941483	-0.9307360147	 0.127193
H	-0.5924626642	 1.7614036792	 0.85479842	 0.112865
H	 1.302076164	 1.0392283986	 2.4261926951	 0.109936
H	 2.1437620611	-0.8874419284	 3.8097065877	 0.2529
H	 1.3709763586	-3.6586494218	 3.9724612543	 0.124759
H	 1.5458817906	-4.3595744709	 2.3608722955	 0.138221
H	 2.9265647755	-3.5785266318	 3.1372654958	 0.12477
H	 0.4382310635	-2.7364739371	 0.4516837183	 0.092794
77.3333	87.1764	202.1389	209.4509	227.5744	320.2097	322.4698	405.4773	469.2724	620.0157	626.4664	640.4351	681.3262	715.9257	786.1184	972.7701	987.3409	1010.8105	1060.6133	1079.6782	1135.7653	1182.724	1187.7269	1217.9351	1277.1577	1319.7414	1415.6938	1440.3151	1456.9225	1473.0534	1480.2365	1481.9857	1508.1001	1512.1574	1566.1185	1640.6904	2987.0403	3015.3832	3037.8287	3058.6279	3123.6886	3126.8702	3256.0262	3282.3184	3687.2841
COC1=CNC(C)=C1	COc1c[nH]c(C)c1	
InChI=1S/C6H9NO/c1-5-3-6(8-2)4-7-5/h3-4,7H,1-2H3	InChI=1S/C6H9NO/c1-5-3-6(8-2)4-7-5/h3-4,7H,1-2H3
