17
gdb 3368	4.00294	2.60431	2.59233	1.5097	63.28	-0.2432	0.0839	0.327	657.5244	0.150344	-309.711438	-309.705034	-309.70409	-309.741359	24.648	
C	-0.1705091952	 1.5553408158	-0.0385243193	-0.424719
C	 0.028950587	 0.054949272	 0.0407186446	-0.003458
C	 1.3445669047	-0.6484403453	-0.2110132993	-0.078446
C	 2.6253323037	 0.1549420808	-0.0837381319	-0.090801
O	 2.5398394898	 0.8610220861	 1.1528613069	-0.253079
C	 1.687355972	 0.1425848417	 2.042891965	-0.0908
C	 0.7331960642	-0.6564963306	 1.1751152673	-0.078447
H	 0.6920591036	 2.1029917488	 0.3450429522	 0.145018
H	-0.3384264984	 1.8670406156	-1.0755430342	 0.112597
H	-1.050782681	 1.8576558289	 0.5398235152	 0.112598
H	-0.8224403808	-0.507053125	-0.3380700451	 0.082945
H	 1.3647285257	-1.5383667507	-0.8299807001	 0.08506
H	 3.4929036193	-0.5247111692	-0.0931895305	 0.091958
H	 2.7730821824	 0.904012237	-0.86996409	 0.106279
H	 2.2682942963	-0.5408442834	 2.6833084826	 0.091957
H	 1.2031837126	 0.883330295	 2.6893908832	 0.106279
H	 0.2935384342	-1.5524814973	 1.5986810134	 0.08506
189.3272	207.1769	229.6517	240.9537	422.4651	498.2481	679.1031	716.6491	770.5101	782.9635	886.2884	919.4876	963.8658	965.5954	1004.7546	1007.7011	1066.6434	1087.526	1121.0564	1126.7213	1131.1547	1147.4411	1222.4452	1224.8252	1247.0875	1329.8139	1359.7478	1361.3772	1380.2576	1419.6662	1451.2915	1501.6954	1506.4945	1518.7443	1525.2361	2969.4411	2975.6492	3032.1174	3054.2343	3057.2948	3084.8614	3119.07	3140.2954	3168.0437	3178.3623
CC1C2COCC12	C[C@H]1[C@H]2COC[C@@H]12	
InChI=1S/C6H10O/c1-4-5-2-7-3-6(4)5/h4-6H,2-3H2,1H3	InChI=1S/C6H10O/c1-4-5-2-7-3-6(4)5/h4-6H,2-3H2,1H3/t4-,5+,6-
