16
gdb 3341	4.27867	3.12441	2.17305	1.3507	59.84	-0.2189	0.078	0.2969	639.0353	0.13957	-325.739818	-325.73398	-325.733035	-325.769247	22.876	
C	 0.0083027089	 1.4686981264	-0.1235042081	-0.247317
C	 1.2868898407	 0.705979642	-0.0181862319	-0.020268
C	 2.1226881693	 0.7972229053	 1.2616442274	-0.104131
O	 1.7425819829	-0.1463611648	 2.2487737169	-0.235991
C	 0.3519585225	-0.0783081854	 2.506508168	-0.098644
C	-0.4264437032	-0.5737509307	 1.2848043856	-0.142281
N	-0.0112159672	 0.0171119075	 0.0087557386	-0.085867
H	-0.2702907375	 2.0843381349	 0.7309138624	 0.106228
H	-0.334362634	 1.8496311739	-1.0822469522	 0.114499
H	 1.8562407005	 0.5227044756	-0.9269788618	 0.094825
H	 3.1713083293	 0.5886131725	 1.0349149393	 0.114601
H	 2.06751875	 1.8145308254	 1.6851266415	 0.091427
H	 0.1540712229	-0.7239956752	 3.3672614116	 0.110689
H	 0.0648219296	 0.9502178639	 2.7856358862	 0.085414
H	-0.2663276824	-1.6544256896	 1.1962003591	 0.114302
H	-1.5018233023	-0.4066831317	 1.4144683774	 0.102515
147.9649	281.567	364.1378	401.3901	455.7444	532.5443	667.2576	733.363	797.4625	874.6826	909.5258	944.8702	957.0324	1000.8981	1037.441	1111.2675	1112.0032	1123.2357	1137.0514	1160.7359	1173.5278	1251.944	1287.7904	1320.089	1329.1545	1371.1203	1384.2077	1403.7125	1418.3682	1481.2767	1494.8814	1498.5999	1516.1135	2954.4374	2961.4301	3032.4977	3075.1987	3084.9085	3088.5184	3089.5468	3123.0283	3173.5166
C1C2COCCN12	C1[C@H]2COCCN12	
InChI=1S/C5H9NO/c1-2-7-4-5-3-6(1)5/h5H,1-4H2	InChI=1S/C5H9NO/c1-2-7-4-5-3-6(1)5/h5H,1-4H2/t5-,6?/m0/s1
