17
gdb 2147	3.69315	2.83267	1.9254	1.4225	64.97	-0.245	0.0188	0.2638	717.8522	0.149007	-309.730966	-309.723982	-309.723037	-309.761531	26.867	
C	-0.0870857058	 1.592818812	 0.0480504443	-0.390179
C	 0.0844077701	 0.0726378971	 0.0162127322	-0.038693
C	 0.9107782156	-0.4715984466	-1.1333868369	-0.069816
C	 1.6611923983	-1.5091056871	-0.7602384464	-0.087834
C	 1.4618787958	-1.8329345426	 0.7037972423	-0.278116
C	 0.8186761417	-0.5345939568	 1.2516678157	 0.119471
O	 1.8052693396	 0.3409836854	 1.7806944035	-0.43
H	 0.8770496027	 2.1033617122	 0.1119789112	 0.1133
H	-0.5988028387	 1.9413491867	-0.8550932357	 0.107472
H	-0.6809706907	 1.9033517266	 0.9131870863	 0.117658
H	-0.9183428622	-0.3810360119	-0.0333338004	 0.081315
H	 0.8507805425	-0.0664837848	-2.1382895467	 0.089927
H	 2.3061812724	-2.0874181983	-1.4125757905	 0.09222
H	 0.790892345	-2.6954066716	 0.8246174355	 0.107173
H	 2.3833035277	-2.0685964612	 1.2468433803	 0.106825
H	 0.1336896181	-0.7196130827	 2.0831750841	 0.079986
H	 2.4603858679	 0.4850179538	 1.0876261212	 0.279292
109.8713	203.7325	265.3664	274.6259	370.0594	406.1499	430.7701	545.0513	686.0527	764.9005	772.4848	822.7736	864.1569	920.5819	949.7482	973.54	994.5727	1012.2494	1082.3334	1104.1442	1122.5573	1147.5851	1176.6875	1240.2527	1265.8382	1303.4691	1321.7115	1341.6446	1382.9865	1412.3614	1433.5525	1475.906	1493.6932	1496.0832	1671.8585	2974.8763	3009.3095	3039.4795	3069.6597	3083.054	3103.8867	3119.2731	3176.3968	3202.8062	3788.3797
CC1C=CCC1O	C[C@H]1C=CC[C@H]1O	
InChI=1S/C6H10O/c1-5-3-2-4-6(5)7/h2-3,5-7H,4H2,1H3	InChI=1S/C6H10O/c1-5-3-2-4-6(5)7/h2-3,5-7H,4H2,1H3/t5-,6+/m0/s1
