15
gdb 1491	6.50743	1.29884	1.10468	2.6768	64.62	-0.263	-0.0549	0.2082	1042.7723	0.122086	-308.505267	-308.497008	-308.496064	-308.538288	28.48	
C	 0.0000775894	 1.5734428437	 0.0446103326	-0.392054
C	-0.0042654119	 0.0437584432	-0.0064500562	-0.166292
C	 0.7129609307	-0.5825389609	 1.1891196581	-0.28525
C	 0.7259862095	-2.100617434	 1.1673997029	 0.226307
O	 0.2186574414	-2.7617058288	 0.2874686766	-0.287047
C	 1.4008255877	-2.7305340793	 2.2940736392	 0.246552
C	 1.9627991169	-3.2322801861	 3.2329938173	-0.393701
H	 1.0214952373	 1.9703345514	 0.0472335841	 0.114636
H	-0.5184454746	 1.9970358024	-0.8206437735	 0.11805
H	-0.4998233414	 1.9446478378	 0.9463457378	 0.114636
H	-1.0325917693	-0.3314061127	-0.0416941356	 0.115232
H	 0.4697690194	-0.3060605202	-0.9296711723	 0.115282
H	 1.7568621079	-0.2431539039	 1.2533322415	 0.130165
H	 0.2579202293	-0.2684168673	 2.139506286	 0.130112
H	 2.4549236878	-3.6934511154	 4.0546713916	 0.21337
62.2755	92.5156	117.5502	223.0066	242.6173	246.492	341.6654	467.0154	568.245	607.0773	644.0273	702.4453	747.4469	833.3661	881.7644	910.4543	1048.9341	1074.2003	1106.5556	1146.2846	1245.3566	1318.7406	1318.8212	1393.113	1416.5377	1446.4654	1487.3447	1501.0327	1507.9572	1769.6706	2210.507	3012.4626	3029.8034	3038.215	3050.2794	3076.814	3101.5686	3105.8907	3495.2246
CCCC(=O)C#C	CCCC(=O)C#C	
InChI=1S/C6H8O/c1-3-5-6(7)4-2/h2H,3,5H2,1H3	InChI=1S/C6H8O/c1-3-5-6(7)4-2/h2H,3,5H2,1H3
