14
gdb 3581	4.93507	2.892	2.45586	1.4088	56.37	-0.2229	0.0578	0.2807	589.1131	0.114042	-324.467888	-324.462139	-324.461194	-324.497015	22.863	
O	 0.1148570826	 1.4527128101	 0.1570692603	-0.417303
C	-0.0455559695	 0.0714714054	-0.0175985417	 0.096024
C	-1.34704613	-0.6477434826	 0.0586100833	-0.123467
C	-2.4694311025	-0.0791122268	-0.8280010551	-0.03129
C	-2.1384401843	 1.1316948065	-1.6079142552	-0.248367
N	-1.6508514608	-0.1916612407	-2.0800350091	-0.151351
C	-0.5038961174	-0.6905185577	-1.2326880708	-0.070021
H	 0.9064295639	 1.7163505062	-0.3258426353	 0.288136
H	 0.7280579714	-0.5101288298	 0.4923083271	 0.097507
H	-1.5351063514	-1.4247302257	 0.78872692	 0.096375
H	-3.4684182855	-0.5019506986	-0.7939692673	 0.099061
H	-2.9219574032	 1.5055734861	-2.2621100603	 0.116284
H	-1.4514943501	 1.8677736652	-1.2203268429	 0.147439
H	 0.0868016868	-1.4903375177	-1.6646836031	 0.100974
201.1269	279.0529	317.6245	423.3805	521.0633	637.4928	684.8297	718.8205	744.9859	771.4896	883.2368	900.0599	964.7978	984.3562	1008.2466	1025.2959	1057.335	1078.752	1103.8193	1123.8028	1149.1942	1215.7149	1247.2911	1280.6974	1292.5338	1347.7456	1361.8865	1461.8093	1495.3194	3061.0962	3129.0594	3158.2056	3171.6936	3192.1867	3267.9543	3796.5221
OC1C2C3CN3C12	O[C@H]1[C@H]2[C@H]3CN3[C@@H]12	
InChI=1S/C5H7NO/c7-5-3-2-1-6(2)4(3)5/h2-5,7H,1H2	InChI=1S/C5H7NO/c7-5-3-2-1-6(2)4(3)5/h2-5,7H,1H2/t2-,3+,4-,5+,6?/m1/s1
