17
gdb 2045	4.2706	2.91806	2.21666	1.3896	64.29	-0.2543	0.0767	0.331	662.4966	0.148719	-309.665941	-309.659399	-309.658455	-309.695711	26.324	
C	-0.1445137114	 1.5540803278	-0.0360286335	-0.486043
C	 0.0140863806	 0.038392134	-0.0110790785	 0.486145
O	-1.2667683744	-0.5520488692	-0.1633784871	-0.486544
C	 1.2081001783	-0.6552366712	-0.7670911795	-0.111548
C	 2.1396346432	-0.1487998227	 0.3723946603	-0.235078
C	 0.8595067917	-0.6701763147	 1.089140488	-0.082969
C	 0.944677101	-1.9018249348	 0.1321069597	-0.223739
H	 0.7875986302	 2.1005712413	 0.1086627094	 0.123582
H	-0.5581104731	 1.8704780171	-1.0027540892	 0.105631
H	-0.85072956	 1.8621199464	 0.7412168666	 0.127625
H	-1.697797449	-0.1345816633	-0.9158281252	 0.275155
H	 1.4104654112	-0.6416181886	-1.8404380565	 0.060603
H	 3.0377047485	-0.747926665	 0.5383047923	 0.093809
H	 2.3723357039	 0.9149443713	 0.4265547541	 0.088877
H	 0.6555268959	-0.6765933727	 2.1614138824	 0.06732
H	 0.0259259416	-2.4554865447	-0.044022348	 0.113995
H	 1.802698852	-2.5601969609	 0.2878054748	 0.083178
187.0696	230.0871	270.9751	354.3373	409.7662	433.6553	557.4707	574.529	671.3829	759.6644	800.9734	869.7228	897.3111	901.9117	954.9835	1003.4716	1014.0589	1020.8872	1060.253	1082.2954	1107.5538	1118.0616	1169.0425	1187.05	1194.8322	1196.1221	1235.8562	1247.0563	1261.8452	1374.9249	1408.1982	1486.6485	1492.4896	1505.1813	1541.8847	3023.2584	3069.7714	3070.2618	3086.9956	3089.6402	3100.5116	3128.1957	3145.3688	3169.9811	3814.7104
CC1(O)C2CC1C2	C[C@@]1(O)[C@H]2C[C@@H]1C2	
InChI=1S/C6H10O/c1-6(7)4-2-5(6)3-4/h4-5,7H,2-3H2,1H3	InChI=1S/C6H10O/c1-6(7)4-2-5(6)3-4/h4-5,7H,2-3H2,1H3/t4-,5+,6-
