14
gdb 4870	4.96041	1.38517	1.14874	2.4334	60.95	-0.2099	0.0174	0.2274	997.5846	0.108389	-415.88652	-415.878966	-415.878022	-415.918658	27.352	
N	 0.1911857783	 1.2617558167	-0.0330969942	-0.586243
C	-0.0128485669	-0.0936378009	 0.0039277272	 0.454499
N	-1.1281246284	-0.7265328844	 0.2025233482	-0.336638
C	-0.7411124725	-2.0648170086	 0.216598703	-0.188836
C	 0.5909245647	-2.1759576789	 0.0255827753	 0.30302
C	 1.5761955526	-3.279459178	-0.0818855693	-0.18961
O	 2.1015600868	-3.4612632186	-1.3946832713	-0.409689
O	 1.0819370492	-0.8766790042	-0.1135013856	-0.226465
H	 0.971291493	 1.5617766726	-0.5986862295	 0.263991
H	-0.6569904857	 1.7814983069	-0.2030770026	 0.273035
H	-1.4593602107	-2.8564871366	 0.3630970849	 0.123534
H	 2.3916938066	-3.1293793168	 0.642970886	 0.103706
H	 1.0734698532	-4.2148463658	 0.1785442635	 0.129803
H	 2.5310384197	-2.6373935334	-1.6468595056	 0.285891
73.2827	126.9165	227.5245	277.2657	309.5979	322.0902	432.1258	449.1839	587.9589	624.4645	708.4584	748.9312	788.2897	868.0109	933.9524	985.4739	1011.4216	1032.3299	1087.5717	1182.2753	1199.0561	1245.3935	1277.1793	1372.2334	1412.7935	1442.1508	1485.7207	1600.9984	1659.4749	1679.941	2981.5595	3098.8458	3260.4598	3578.2464	3687.0172	3819.1303
NC1=NC=C(CO)O1	Nc1ncc(CO)o1	
InChI=1S/C4H6N2O2/c5-4-6-1-3(2-7)8-4/h1,7H,2H2,(H2,5,6)	InChI=1S/C4H6N2O2/c5-4-6-1-3(2-7)8-4/h1,7H,2H2,(H2,5,6)
