15
gdb 2060	4.77039	2.5324	1.74913	3.6663	63.69	-0.2353	-0.0468	0.1885	710.3459	0.127016	-308.561301	-308.555191	-308.554247	-308.591213	23.302	
O	 0.0218028324	-0.046138074	 0.120143195	-0.333353
C	-0.0099596671	 1.1621293504	-0.0019830241	 0.381331
C	-1.3213734964	 1.9395422598	-0.0629285377	-0.30408
C	-1.2072817092	 3.2031640887	-0.9246979385	-0.217955
C	-0.0492571555	 4.0921802209	-0.4523729694	-0.24887
C	 1.2096408438	 3.3011684209	-0.2301937934	-0.037405
C	 1.2267911701	 1.9733925319	-0.0523149833	-0.144279
H	-2.1049756829	 1.2634968655	-0.4140913434	 0.121827
H	-1.5779621099	 2.2164644674	 0.9704046092	 0.121433
H	-1.0259604311	 2.9115673706	-1.9665543063	 0.112196
H	-2.1483075891	 3.7622083573	-0.9117977368	 0.10306
H	 0.1419525357	 4.8949130493	-1.1740749017	 0.113365
H	-0.3169520637	 4.6019549752	 0.4865594765	 0.121392
H	 2.1457752284	 3.8559542014	-0.2145998143	 0.106568
H	 2.1536364744	 1.4249224146	 0.0849870581	 0.104771
108.5235	243.8886	312.4352	420.1575	463.8228	485.2503	595.027	711.1424	743.5166	769.1533	862.4521	897.1627	946.0841	988.4275	1026.8904	1061.9392	1074.4359	1130.0246	1158.7891	1233.8218	1255.6142	1268.5426	1347.8445	1368.404	1379.0496	1408.3431	1458.0069	1470.4846	1496.9402	1681.7936	1779.6582	2992.5316	3010.4117	3032.9478	3054.6727	3079.5633	3101.512	3147.2562	3187.041
O=C1CCCC=C1	O=C1CCCC=C1	
InChI=1S/C6H8O/c7-6-4-2-1-3-5-6/h2,4H,1,3,5H2	InChI=1S/C6H8O/c7-6-4-2-1-3-5-6/h2,4H,1,3,5H2
