17
gdb 1123	4.85105	1.59183	1.41258	3.3841	61.44	-0.2412	0.0598	0.301	918.228	0.147968	-343.087962	-343.079469	-343.078525	-343.120797	30.706	
C	-0.0174076947	 1.5500661523	-0.0010554039	-0.384694
C	-0.0221947502	 0.0155306506	-0.0183695515	 0.077607
C	-1.4385034331	-0.5612024355	 0.010797456	-0.398489
N	 0.6950394836	-0.5234847711	-1.1746341938	-0.340468
C	 2.0722480301	-0.5614665565	-1.1807556455	 0.451621
N	 2.6205295787	-0.8902500803	-2.4193120132	-0.56614
O	 2.7585959106	-0.3186533994	-0.2046303512	-0.395342
H	 1.0096640247	 1.9224627958	-0.0020174685	 0.141512
H	-0.5386774716	 1.9543186756	-0.8771790783	 0.101233
H	-0.5209056452	 1.9298508316	 0.8941062227	 0.112629
H	 0.5333786316	-0.3380460198	 0.8543919108	 0.117459
H	-2.0123661532	-0.2447357501	-0.8694446654	 0.106562
H	-1.4170040444	-1.6543797304	 0.0281475487	 0.120969
H	-1.9772705094	-0.2100671419	 0.8955734377	 0.121193
H	 0.2384499794	-0.414023196	-2.0685888898	 0.231296
H	 2.0910528145	-1.5213431113	-3.0030265409	 0.244881
H	 3.5966708485	-1.1354129136	-2.3445671239	 0.258171
52.48	103.6121	185.8517	233.0003	264.7255	320.3043	376.7554	409.244	434.1858	474.2689	509.1186	578.3616	652.4599	780.5165	855.4186	925.3535	929.342	953.6294	1058.5744	1097.2666	1150.9292	1187.6751	1202.4727	1300.2817	1353.3697	1391.0818	1395.6319	1416.423	1484.5599	1488.7482	1495.6527	1509.7504	1532.5879	1625.7807	1798.1349	3024.9645	3029.2812	3076.7355	3091.3553	3105.7054	3119.6868	3127.2693	3567.6875	3599.4637	3680.7161
CC(C)NC(N)=O	CC(C)NC(=O)N	
InChI=1S/C4H10N2O/c1-3(2)6-4(5)7/h3H,1-2H3,(H3,5,6,7)	InChI=1S/C4H10N2O/c1-3(2)6-4(5)7/h3H,1-2H3,(H3,5,6,7)
