14
gdb 4553	4.01248	1.77393	1.23973	2.0403	59.91	-0.1833	0.0539	0.2372	914.6483	0.107866	-415.899952	-415.892238	-415.891294	-415.93192	28.101	
C	-0.0748590837	 1.4823952317	 0.0235669145	-0.345058
N	 0.0103534226	 0.0391118156	-0.0268691283	-0.048595
C	 0.0228402108	-0.7639660444	-1.1815795648	-0.247571
C	 0.1149089285	-2.0402549217	-0.7092934128	 0.342924
O	 0.1612537855	-3.1816535339	-1.4314959361	-0.437326
N	 0.1601679351	-2.0746253207	 0.6651672519	-0.462992
C	 0.0946877069	-0.8105295016	 1.0165253155	 0.449144
O	 0.1057953221	-0.3388065411	 2.2772156839	-0.428782
H	 0.7748258174	 1.940104477	-0.4936756642	 0.140199
H	-1.0009825885	 1.8331523763	-0.4435530367	 0.140216
H	-0.0643793341	 1.7974230841	 1.0670494424	 0.162126
H	-0.0334923209	-0.3470671072	-2.1705338246	 0.122774
H	 0.2249030484	-3.9011085173	-0.7925059439	 0.298597
H	 0.1702022998	-1.1106215269	 2.8524922132	 0.314344
83.7816	146.0526	251.6549	280.1851	332.3451	341.6432	348.2063	383.4834	545.4614	603.415	616.7114	674.6307	685.0345	728.3979	853.6938	1032.8703	1066.3035	1154.9466	1163.9163	1180.7267	1233.9976	1308.9393	1364.6102	1415.5031	1456.2409	1488.3505	1511.7174	1592.1524	1612.7445	1681.8137	3035.9814	3090.9566	3156.7752	3297.1658	3810.9265	3816.4384
CN1C=C(O)N=C1O	Cn1cc(O)nc1O	
InChI=1S/C4H6N2O2/c1-6-2-3(7)5-4(6)8/h2,7H,1H3,(H,5,8)	InChI=1S/C4H6N2O2/c1-6-2-3(7)5-4(6)8/h2,7H,1H3,(H,5,8)
