14
gdb 3086	3.64186	2.3425	1.98077	3.8663	58.24	-0.2728	0.0259	0.2988	708.0735	0.112695	-324.576679	-324.569261	-324.568317	-324.608009	26.332	
C	-0.1426139359	 1.5727467128	-0.0393854345	-0.407871
C	 0.0133950521	 0.0704703427	-0.0013296334	-0.043523
C	 1.3386165874	-0.5789595252	-0.2352885404	 0.095649
O	 2.4127492141	 0.2646149436	-0.471590679	-0.400825
C	 0.7204145676	-0.6276775593	 1.1691647572	-0.246392
C	 1.3399585672	 0.1391307199	 2.2079155557	 0.289645
N	 1.8631110471	 0.7409635735	 3.0470814926	-0.343367
H	 0.7617563323	 2.0749613457	 0.3061767122	 0.155476
H	-0.3419226995	 1.9033860512	-1.0635175851	 0.127425
H	-0.9790861257	 1.8906126223	 0.5900214267	 0.128016
H	-0.8427597953	-0.4891040825	-0.3672693634	 0.105656
H	 1.3620392014	-1.5285834585	-0.7694179713	 0.103769
H	 3.1758900064	-0.0494514805	 0.0261331588	 0.303603
H	 0.3147182008	-1.5778217457	 1.500264214	 0.132739
115.0328	145.3199	163.0762	238.2011	281.2126	347.7637	399.914	536.9048	607.5589	663.2837	738.0692	796.5263	872.2592	956.0564	988.6849	1034.3315	1092.4465	1128.0732	1149.1601	1189.8128	1239.6298	1304.0184	1357.1829	1380.6774	1422.5087	1451.0363	1490.6229	1501.6408	2348.6206	3047.4825	3103.0259	3108.4226	3141.4352	3156.306	3168.7117	3802.2048
CC1C(O)C1C#N	C[C@H]1[C@@H](O)[C@H]1C#N	
InChI=1S/C5H7NO/c1-3-4(2-6)5(3)7/h3-5,7H,1H3	InChI=1S/C5H7NO/c1-3-4(2-6)5(3)7/h3-5,7H,1H3/t3-,4+,5-/m1/s1
