13
gdb 582	12.0259	1.88839	1.78884	2.6644	50.88	-0.2497	-0.0251	0.2245	677.2239	0.106753	-286.459793	-286.453456	-286.452512	-286.49031	21.491	
O	-0.3190273518	 0.5683840955	 0.8145709128	-0.236637
C	 0.0445147484	 1.1950914792	-0.1455766677	 0.156589
C	 1.4531589529	 1.7388993824	-0.3250945847	-0.229828
N	 1.4469333024	 2.8800986874	-1.224625905	-0.072674
C	 1.3343437572	 4.1979531756	-0.6008262332	-0.222199
C	 2.6226505901	 3.7420318352	-1.1915062478	-0.215101
H	-0.6313760159	 1.4139782354	-1.0019151971	 0.091105
H	 1.8868969082	 1.9381647486	 0.6691088463	 0.110854
H	 2.0499062173	 0.9370854381	-0.7845578906	 0.135279
H	 0.7099296977	 4.9152122433	-1.1247987824	 0.124488
H	 1.2734371279	 4.2444569697	 0.4852544502	 0.119013
H	 3.4243531508	 3.4875153405	-0.5005641097	 0.115238
H	 2.9539803347	 4.1220538294	-2.153508521	 0.123872
66.2969	103.7687	201.9307	362.3269	427.0171	498.7152	729.8043	784.2045	852.7439	901.21	1016.4516	1035.8881	1062.001	1105.3465	1120.26	1124.095	1173.9883	1189.515	1254.4745	1327.2773	1334.9771	1407.9316	1457.1686	1491.6208	1520.1246	1840.0476	2894.6042	2968.4788	3027.2424	3097.6512	3102.4302	3182.5503	3197.1085
O=CCN1CC1	O=CCN1CC1	
InChI=1S/C4H7NO/c6-4-3-5-1-2-5/h4H,1-3H2	InChI=1S/C4H7NO/c6-4-3-5-1-2-5/h4H,1-3H2
