12
gdb 2878	5.91944	2.16327	1.90673	3.0044	54.7	-0.2496	-0.0038	0.2458	659.8445	0.092774	-319.575102	-319.569142	-319.568198	-319.605136	21.234	
N	 0.2334378678	-1.1485799478	 0.0428286482	-0.313437
C	 0.100060305	-0.0003805954	 0.0296572001	 0.264953
C	-0.0557397373	 1.4612622895	-0.0006829101	-0.132008
C	-0.5951578853	 2.0535089072	 1.3535408211	-0.172465
N	 0.567353926	 2.6501029604	 2.0218129636	-0.225229
C	 1.5147222692	 2.6442656889	 1.1723850924	 0.072522
N	 1.2381598132	 2.1532866608	-0.1024056802	-0.299149
H	-0.7055105353	 1.7156432712	-0.8422652249	 0.138371
H	-1.3416576271	 2.8291011708	 1.1499566352	 0.128786
H	-1.0626633585	 1.2918446818	 1.9808366516	 0.14061
H	 2.50447777	 3.0442700475	 1.3706193771	 0.138572
H	 1.9784417222	 1.6963762852	-0.6166250841	 0.258473
95.7064	179.7561	261.0539	463.3238	496.8552	556.5581	605.6286	786.0158	809.3998	878.6187	944.2156	972.4988	994.3516	1030.3419	1070.5789	1114.4019	1216.2791	1237.1756	1318.4838	1338.5635	1360.3827	1419.6539	1491.4294	1703.8143	2351.6711	3047.1515	3074.7449	3109.7836	3194.85	3599.6343
N#CC1CN=CN1	N#C[C@H]1C[N][CH]N1	
InChI=1S/C4H5N3/c5-1-4-2-6-3-7-4/h3-4H,2H2,(H,6,7)	InChI=1S/C4H5N3/c5-1-4-2-6-3-7-4/h3-4H,2H2,(H,6,7)/t4-/m0/s1
