13
gdb 4085	3.64961	1.91681	1.25682	3.5563	69.28	-0.202	-0.0566	0.1453	886.9405	0.096208	-394.754336	-394.747078	-394.746134	-394.786368	26.477	
O	-0.100455103	 1.3167187541	 0.0091593547	-0.372334
N	 0.0296558741	-0.0680352465	-0.0007034826	-0.216073
C	-1.1231715015	-0.6369749265	 0.0088877281	 0.353136
C	-2.471592003	-0.0916218745	 0.0263602219	-0.250015
C	-3.3173980101	-1.1435948815	 0.0188613991	-0.016874
N	-2.6316898192	-2.3505132266	-0.0141098336	-0.353368
C	-1.2474061354	-2.1345598347	-0.0008997205	 0.330525
N	-0.2978899336	-2.9817975138	 0.0030448383	-0.517766
H	 0.8176414193	 1.6095551295	 0.0000437404	 0.31414
H	-2.7291113259	 0.9527074676	 0.0359610264	 0.12561
H	-4.3983663657	-1.1460527755	 0.0272329048	 0.137053
H	-3.0570416984	-3.2582697938	 0.0449040575	 0.256927
H	-0.6537551975	-3.9396199979	-0.0062127844	 0.209039
45.1024	198.8644	215.0652	247.7682	371.3283	372.3751	475.3265	575.762	627.5337	635.9935	725.0788	799.8251	803.4801	847.4835	861.6854	905.291	997.5145	1057.9246	1091.8973	1132.6796	1188.8548	1319.0004	1345.8718	1410.19	1437.1818	1620.2427	1686.8789	1745.9613	3236.5975	3296.2452	3455.9598	3688.7462	3810.5924	45.1026	198.8646	215.0653	247.7685	371.3284	372.3754	475.3271	575.762	627.5337	635.9935	725.0786	799.8253	803.4801	847.4837	861.6855	905.2916	997.5149	1057.9249	1091.8973	1132.6798	1188.8548	1319.0003	1345.8719	1410.1897	1437.1815	1620.2428	1686.8792	1745.961	3236.5977	3296.2452	3455.9594	3688.7462	3810.5931
ON=C1C=CNC1=N	ON=C1C=CN[C]1[NH]	
InChI=1S/C4H5N3O/c5-4-3(7-8)1-2-6-4/h1-2,8H,(H2,5,6,7)	InChI=1S/C4H5N3O/c5-4-3(7-8)1-2-6-4/h1-2,8H,(H2,5,6,7)
