13
gdb 3192	4.55635	3.69736	3.29154	1.7394	55.61	-0.2191	-0.0172	0.2019	508.2855	0.103739	-307.28191	-307.277175	-307.27623	-307.309961	19.963	
O	 0.0032086029	 1.4461848537	 0.009791255	-0.229637
C	 1.4338565657	 1.571415885	-0.0036331947	-0.038844
C	 1.7923111816	 0.7125474851	 1.2382330211	-0.073713
C	 0.894641471	-0.2668926466	 1.2421668389	-0.073686
C	 0.0030194929	 0.0100212649	 0.0025376893	-0.038845
C	 0.8701725222	-0.2543075386	-1.2570470054	-0.073712
C	 1.7677037502	 0.7252594	-1.2609785018	-0.073687
H	 1.7446989284	 2.6147706542	-0.0013935691	 0.081625
H	 2.6372882395	 0.8797650634	 1.8901614439	 0.109719
H	 0.8041653171	-1.1203724686	 1.8981736677	 0.109718
H	-1.0092770033	-0.390491284	 0.0104382351	 0.081625
H	 0.7668070435	-1.1011676677	-1.9196948115	 0.109718
H	 2.5996747183	 0.8992053592	-1.9277061586	 0.109718
425.3506	437.2097	548.0759	621.2833	676.1759	733.4018	735.4236	802.3678	834.7455	875.8606	883.4973	889.0502	901.5332	903.1032	923.2384	966.9762	1054.8286	1059.1178	1152.1898	1210.3724	1224.8254	1256.3984	1275.4794	1304.6652	1324.5983	1616.294	1658.3906	3136.2536	3139.8799	3227.2105	3228.5089	3253.7417	3255.923
O1C2C=CC1C=C2	O1[C@H]2C=C[C@@H]1C=C2	
InChI=1S/C6H6O/c1-2-6-4-3-5(1)7-6/h1-6H	InChI=1S/C6H6O/c1-2-6-4-3-5(1)7-6/h1-6H/t5-,6+
