17
gdb 1475	3.94272	1.77332	1.31023	1.4918	66.33	-0.2505	0.0573	0.3077	937.8226	0.145061	-309.678344	-309.669535	-309.668591	-309.711717	30.835	
C	-0.0942546848	 1.4236685904	 0.0511071486	-0.235516
O	 0.0532503406	 0.0249650946	-0.015501418	-0.23768
C	 0.6873747688	-0.5598187921	 1.109857803	 0.14475
C	-0.2933043673	-0.76901079	 2.2667871388	-0.402547
C	 1.2789123868	-1.8970763528	 0.6280475816	-0.361278
C	 2.3531666298	-1.7363763549	-0.3431972162	 0.308857
C	 3.2535400316	-1.5983259853	-1.1269493783	-0.444636
H	 0.8768764796	 1.9277994469	 0.1724981451	 0.108367
H	-0.5405886226	 1.7439489465	-0.8935922335	 0.128756
H	-0.7537860633	 1.7432969785	 0.8718139226	 0.102925
H	 1.5148071005	 0.0875360451	 1.4416203501	 0.074873
H	 0.2143558366	-1.1996902803	 3.1358198371	 0.115642
H	-0.7410650821	 0.1781433401	 2.5800589713	 0.119005
H	-1.1003637212	-1.4437749125	 1.9636941834	 0.124422
H	 1.646139696	-2.4573865828	 1.496473791	 0.125243
H	 0.4636687657	-2.4875674185	 0.1914874598	 0.137086
H	 4.0417710055	-1.4800426829	-1.8280634064	 0.19173
63.3266	82.2158	141.0598	196.1397	220.0322	289.4122	325.1095	344.1344	403.1954	478.7173	560.1665	611.3943	638.069	815.3	884.5819	910.799	983.6475	1066.9595	1111.3769	1119.0139	1166.3438	1183.3817	1207.6202	1269.4438	1310.8908	1378.0096	1385.0742	1405.5881	1457.1054	1478.9815	1483.0809	1493.566	1499.6873	1510.8172	2241.7125	2973.4834	2981.4497	3023.6667	3027.555	3039.3109	3065.6877	3110.0141	3112.695	3116.1527	3508.2626
COC(C)CC#C	CO[C@@H](C)CC#C	
InChI=1S/C6H10O/c1-4-5-6(2)7-3/h1,6H,5H2,2-3H3	InChI=1S/C6H10O/c1-4-5-6(2)7-3/h1,6H,5H2,2-3H3/t6-/m0/s1
