11
gdb 4424	3.97092	2.08146	1.36563	3.6725	56.03	-0.2546	-0.0585	0.196	800.892	0.073679	-434.610401	-434.60438	-434.603436	-434.640687	22.453	
O	-0.0972322178	 1.2864682236	 0.0100855977	-0.36533
C	 0.0566439238	-0.0299563958	 0.0022376986	 0.528026
N	 1.23361385	-0.5697635568	-0.0071823463	-0.408438
C	 1.2343053595	-1.9403528277	-0.0144122333	 0.022061
C	 0.1157997362	-2.7082450712	-0.0121759839	-0.263948
C	-1.1824840399	-2.091756425	-0.0014371001	 0.43236
O	-2.2765412117	-2.5662438324	 0.0019116496	-0.315824
O	-1.1107314942	-0.6444614887	 0.005641786	-0.220159
H	 0.7936534495	 1.6657692524	 0.0070893475	 0.325054
H	 2.2191381324	-2.3979379093	-0.0224396059	 0.133845
H	 0.1499795421	-3.7885352592	-0.01818725	 0.132353
151.8653	188.9044	361.5615	419.774	493.7795	551.4124	571.795	574.8071	734.8448	765.0104	792.583	836.1739	873.4576	992.8278	1016.3124	1083.5258	1122.8095	1221.9298	1335.5374	1439.5584	1481.4053	1583.0657	1662.5125	1891.4699	3181.0517	3239.7139	3773.8505
OC1=NC=CC(=O)O1	Oc1nccc(=O)o1	
InChI=1S/C4H3NO3/c6-3-1-2-5-4(7)8-3/h1-2H,(H,5,7)	InChI=1S/C4H3NO3/c6-3-1-2-5-4(7)8-3/h1-2H,(H,5,7)
