9
gdb 722	6.37607	6.29157	3.16677	4.753	45.02	-0.2556	-0.0696	0.186	391.8571	0.063368	-280.24835	-280.244113	-280.243169	-280.275768	14.974	
C	-0.050122619	 1.4036312476	 0.0107125833	-0.14166
C	 1.1834321592	 2.030973916	 0.0019959376	 0.072984
N	 2.3308756909	 1.3439401443	-0.0131581678	-0.182035
N	 2.3033501669	 0.0212161447	-0.0202097956	-0.051024
N	 1.1614681766	-0.6469247399	-0.012636041	-0.182029
C	 0.0026298579	 0.0207272876	 0.002523318	 0.072981
H	-0.9844405443	 1.952446879	 0.0229965241	 0.130974
H	 1.2879046841	 3.112041068	 0.006952775	 0.139904
H	-0.8907182723	-0.5969648873	 0.0079259763	 0.139905
308.7355	364.4196	663.9724	678.1218	789.9878	836.0013	993.8912	1003.2369	1012.8384	1024.453	1095.6729	1104.5648	1141.2115	1228.0865	1391.1961	1437.6806	1587.8138	1590.3055	3175.0353	3179.5254	3208.5294
C1=CN=NN=C1	c1cnnnc1	
InChI=1S/C3H3N3/c1-2-4-6-5-3-1/h1-3H	InChI=1S/C3H3N3/c1-2-4-6-5-3-1/h1-3H
