16
gdb 4793	6.88261	1.27309	1.08902	0.7803	68.71	-0.1899	0.0422	0.2321	1083.7046	0.129738	-383.763415	-383.755274	-383.75433	-383.796641	28.849	
C	 0.0315033187	 1.4309483268	 0.0964169516	-0.244376
O	 0.0499690612	 0.0097737534	-0.0139385758	-0.268088
C	 0.6192400028	-0.6740214235	 0.9838454814	 0.48013
C	 0.7794352552	-2.0144232329	 1.1479685273	-0.439252
C	 1.4607685725	-2.171342648	 2.4092739629	 0.281978
C	 1.8726001424	-3.4595006185	 3.0503787846	-0.497523
C	 1.6516525966	-0.9192330582	 2.8943792462	-0.135976
O	 1.13581955	 0.0190249639	 2.022686877	-0.195027
H	 1.0464951425	 1.8385431917	 0.1459651638	 0.134122
H	-0.4681942247	 1.7896907399	-0.8038953589	 0.136643
H	-0.5236867492	 1.7531123688	 0.9834189512	 0.134118
H	 0.4579926271	-2.7849456548	 0.4670876553	 0.105749
H	 2.5615593416	-4.0222655941	 2.4102242593	 0.129176
H	 2.3729205867	-3.282926061	 4.0066311771	 0.122357
H	 1.0083052194	-4.1066311662	 3.2384741038	 0.129174
H	 2.1057294972	-0.5224226073	 3.7859901934	 0.126796
33.8736	142.7202	155.9059	206.3894	209.2547	314.9814	356.8427	494.7245	611.7024	617.8661	644.4178	692.6711	729.9809	757.1557	954.2076	985.1398	1016.468	1058.9927	1064.0677	1126.2765	1177.4886	1192.0516	1201.3378	1251.9607	1328.8997	1409.4532	1423.995	1481.3084	1481.7234	1485.0363	1498.2347	1502.9387	1618.4738	1670.4036	3028.4392	3032.0507	3079.1474	3098.3869	3110.128	3148.6041	3268.6244	3285.9752
COC1=CC(C)=CO1	COc1cc(C)co1	
InChI=1S/C6H8O2/c1-5-3-6(7-2)8-4-5/h3-4H,1-2H3	InChI=1S/C6H8O2/c1-5-3-6(7-2)8-4-5/h3-4H,1-2H3
