17
gdb 2765	3.72207	2.2633	1.60962	2.9436	64.62	-0.2434	-0.0203	0.223	802.9428	0.147698	-309.720334	-309.712874	-309.711929	-309.752146	26.966	
C	-0.582348656	 1.3665895476	 0.0217290121	-0.416147
C	 0.0951370258	 0.0040358379	-0.0220446952	 0.045334
C	 1.4746749287	-0.1530617386	-0.7175560856	-0.227279
C	 1.8923712063	-1.1431852724	 0.399153747	-0.237413
C	 0.7153604303	-0.6226370622	 1.2866624908	-0.102377
C	 1.1663785763	 0.3945912644	 2.2975048763	 0.169941
O	 0.7647502653	 0.4633143218	 3.4320381694	-0.259652
H	 0.0907871022	 2.146778317	 0.3920072612	 0.118121
H	-0.9107024018	 1.6641354281	-0.9801515282	 0.118375
H	-1.4641325797	 1.3518668202	 0.6712173309	 0.127514
H	-0.6026781356	-0.7340463182	-0.4314760402	 0.085435
H	 1.4820941065	-0.5156248357	-1.7481970795	 0.101254
H	 2.0534712938	 0.7754293911	-0.6775034537	 0.104413
H	 1.7376451829	-2.1866586371	 0.1161032125	 0.113743
H	 2.9003882444	-1.0428415	 0.8103916257	 0.10638
H	 0.100352704	-1.3641933557	 1.800205289	 0.085798
H	 1.9373878463	 1.112183912	 1.9272410975	 0.066559
68.453	108.7376	221.8008	236.7779	313.4518	332.1739	455.1857	461.6284	643.3398	746.2357	861.8525	874.4283	893.5242	942.6186	961.2211	981.2254	1013.1395	1083.1342	1129.2478	1144.7379	1178.9952	1219.495	1248.5967	1260.2848	1269.4807	1281.302	1328.7348	1371.4522	1414.9389	1438.9694	1480.5643	1494.5082	1500.3465	1501.3489	1825.2344	2842.2393	3030.916	3043.2902	3051.6117	3062.2157	3093.7273	3097.0715	3099.4231	3103.8259	3120.3053
CC1CCC1C=O	C[C@H]1CC[C@H]1C=O	
InChI=1S/C6H10O/c1-5-2-3-6(5)4-7/h4-6H,2-3H2,1H3	InChI=1S/C6H10O/c1-5-2-3-6(5)4-7/h4-6H,2-3H2,1H3/t5-,6-/m0/s1
