13
gdb 847	6.79394	2.13479	1.64101	2.949	56.23	-0.1921	0.0343	0.2263	722.6235	0.10294	-340.683837	-340.677145	-340.676201	-340.714865	24.217	
C	-0.0216928755	 1.456194757	-0.0168234195	-0.496427
C	 0.01793759	-0.0353427788	-0.0210098053	 0.35051
N	 0.0482253662	-0.803693815	-1.0978063337	-0.377816
C	 0.0789079594	-2.0887899046	-0.6344865793	 0.339216
O	 0.1148590329	-3.1399855288	-1.4845747925	-0.439267
C	 0.0679398293	-2.1305747324	 0.7336082825	-0.209799
N	 0.0278995051	-0.7918082307	 1.1070838168	-0.271811
H	 0.849760251	 1.8878359954	 0.4891995771	 0.131869
H	-0.0272925424	 1.8079295501	-1.0491195801	 0.156477
H	-0.918331356	 1.8408102388	 0.4830102766	 0.131661
H	 0.1123883184	-2.7618177846	-2.3721988103	 0.298522
H	 0.0832338509	-2.936696277	 1.4445211369	 0.125794
H	 0.0101898006	-0.4478530293	 2.0519101408	 0.261072
39.5893	215.5316	290.3174	336.9763	375.6802	461.0309	490.1305	628.1053	640.5417	676.2702	730.5724	748.3678	973.5229	1017.3502	1053.7599	1059.8029	1106.1769	1178.9525	1291.6553	1320.0955	1409.3144	1426.8193	1454.6844	1483.1423	1511.7091	1572.7802	1667.4644	3028.952	3077.2515	3148.4924	3295.8327	3670.0433	3804.3301
CC1=NC(O)=CN1	Cc1nc(O)c[nH]1	
InChI=1S/C4H6N2O/c1-3-5-2-4(7)6-3/h2,7H,1H3,(H,5,6)	InChI=1S/C4H6N2O/c1-3-5-2-4(7)6-3/h2,7H,1H3,(H,5,6)
