14
gdb 2166	3.68939	3.11031	1.79971	3.2035	52.83	-0.2438	0.0095	0.2533	681.764	0.115622	-361.752301	-361.745829	-361.744885	-361.78268	23.572	
N	 0.2036313629	 1.3450190621	 0.4706039163	-0.513624
C	-0.0774795623	 0.021862116	-0.0589114041	-0.100988
C	-1.5563937274	-0.2780596186	-0.3129106638	-0.233116
C	-1.4763110753	-1.3748285222	-1.3823621496	-0.086195
O	-0.2778625638	-1.0994997986	-2.1373342822	-0.217052
C	 0.5531717647	-0.2934836764	-1.4267094447	 0.417115
O	 1.6029575465	 0.0974274938	-1.8504070327	-0.346031
H	 1.2127953059	 1.4750336978	 0.4890256386	 0.244632
H	-0.1435437227	 2.0462602116	-0.1801787316	 0.229717
H	 0.3298443919	-0.718330337	 0.6449138097	 0.116343
H	-2.102651416	-0.5924049287	 0.5775007155	 0.123781
H	-2.0487113261	 0.6137285791	-0.7176762815	 0.115967
H	-1.3868222188	-2.3736302796	-0.9391821236	 0.120283
H	-2.3140534596	-1.3768544492	-2.0820861665	 0.129166
120.5915	206.0719	226.812	264.9763	383.4039	511.1763	574.0738	663.3867	723.3465	799.2357	870.7208	929.2497	956.1628	1001.4893	1046.9438	1051.7362	1161.6871	1173.5537	1206.0071	1230.5304	1265.787	1307.5328	1338.4639	1391.9968	1421.0479	1493.0093	1524.164	1667.2138	1878.395	3009.8874	3039.8491	3051.2582	3113.4611	3126.5057	3474.6705	3547.8337
NC1CCOC1=O	N[C@H]1CCOC1=O	
InChI=1S/C4H7NO2/c5-3-1-2-7-4(3)6/h3H,1-2,5H2	InChI=1S/C4H7NO2/c5-3-1-2-7-4(3)6/h3H,1-2,5H2/t3-/m0/s1
