16
gdb 4928	6.71326	1.24499	1.06112	1.8206	68.58	-0.1736	0.0578	0.2314	1085.4893	0.131327	-379.93611	-379.92791	-379.926966	-379.968524	30.066	
C	-0.0224340005	 1.3797745625	-0.0242138483	-0.239321
O	 0.0279557201	-0.0304006546	-0.0277110921	-0.26339
C	 0.6322939473	-0.5897037689	 1.0536216478	 0.375523
C	 1.2236973222	 0.0232968282	 2.1352779734	-0.23769
N	 1.7207163289	-0.9946755869	 2.9412950079	-0.286585
C	 1.4350753651	-2.2119283424	 2.3888374061	 0.32602
N	 1.7834486044	-3.3856250312	 3.0879726809	-0.608022
C	 0.7667359029	-2.001900467	 1.2029580685	-0.360755
H	 0.9866434067	 1.8162385184	-0.0138957963	 0.112935
H	-0.5369875714	 1.6819953361	-0.9382893572	 0.126492
H	-0.5758717438	 1.7579513542	 0.8471954416	 0.113667
H	 1.3590719635	 1.0581741288	 2.393584674	 0.109368
H	 2.0479975006	-0.8798122608	 3.8841549295	 0.254856
H	 2.7805754723	-3.5770025735	 3.0449451187	 0.242846
H	 1.3005163167	-4.185659281	 2.6983542261	 0.246938
H	 0.4377946949	-2.751536782	 0.5010709495	 0.087118
88.8372	126.6287	206.4143	216.8097	239.6984	319.74	354.6172	434.663	490.6074	598.8756	634.69	641.6731	675.2467	732.7298	758.7537	830.6674	979.5933	1006.9719	1079.7844	1116.5491	1157.0675	1182.7806	1200.6493	1223.3481	1285.024	1325.3422	1434.835	1474.0821	1481.4367	1496.7302	1512.447	1575.0603	1630.966	1659.1764	2988.244	3039.2982	3126.8585	3257.5832	3286.9503	3490.0694	3598.8684	3685.7406
COC1=CNC(N)=C1	COc1c[nH]c(N)c1	
InChI=1S/C5H8N2O/c1-8-4-2-5(6)7-3-4/h2-3,7H,6H2,1H3	InChI=1S/C5H8N2O/c1-8-4-2-5(6)7-3-4/h2-3,7H,6H2,1H3
