15
gdb 3172	5.84304	2.3301	1.92004	1.954	62.9	-0.2399	0.012	0.2519	688.1449	0.125993	-308.510782	-308.504627	-308.503682	-308.541284	23.232	
C	 0.1333528114	 1.5418426309	-0.0200472109	-0.249964
O	 1.2257034351	 0.6225527167	 0.0086470196	-0.281236
C	-0.1105364502	 0.0907107014	 0.0021964501	 0.439773
C	-0.5846037514	-0.6895803612	 1.2350994074	-0.309854
C	-1.4854904142	-1.8248673722	 0.6776599494	-0.265977
C	-1.2997669927	-1.7338144362	-0.8194496156	-0.068802
C	-0.5571740122	-0.6885037257	-1.1812533808	-0.137374
H	-0.0178223941	 2.1217328413	 0.8909010274	 0.109455
H	 0.0152669673	 2.1036803729	-0.9470448499	 0.108448
H	 0.2943216585	-1.0949608042	 1.7442080175	 0.125558
H	-1.1104505028	-0.0528740002	 1.9505486683	 0.106652
H	-1.2088300814	-2.811878608	 1.0662306096	 0.111273
H	-2.5386538394	-1.6774238688	 0.949067271	 0.112119
H	-1.7503678461	-2.4458967642	-1.5020392449	 0.099079
H	-0.2901016277	-0.4025932223	-2.191567598	 0.10085
42.2033	256.4942	330.6714	353.3899	507.7608	519.8493	730.9614	750.9342	803.6583	821.2496	856.8063	901.9043	933.2604	963.5926	975.4432	1005.9379	1057.9451	1116.3883	1128.0263	1161.6244	1173.3779	1231.4912	1250.003	1273.9114	1329.0011	1343.0984	1427.8222	1477.0884	1497.4256	1527.0109	1681.955	3024.6288	3051.8869	3065.734	3067.0716	3108.1646	3151.6465	3188.858	3216.3184
C1OC11CCC=C1	C1O[C@]21CCC=C2	
InChI=1S/C6H8O/c1-2-4-6(3-1)5-7-6/h1,3H,2,4-5H2	InChI=1S/C6H8O/c1-2-4-6(3-1)5-7-6/h1,3H,2,4-5H2/t6-/m0/s1
