14
gdb 704	8.59504	2.64585	2.63113	2.8886	53.03	-0.2328	0.0704	0.3032	550.0663	0.121976	-266.553159	-266.547497	-266.546553	-266.582241	20.774	
C	 0.2894570016	 1.440927306	 0.2293418207	-0.235122
N	 1.154290367	 0.3339771624	-0.2196219255	-0.322894
C	-0.2732687299	 0.0818177876	 0.0187360301	-0.024332
C	-0.5927270767	-0.8307333538	 1.1661963404	 0.006792
C	 0.0486680312	-2.1662782606	 1.2456709808	-0.232555
N	 0.4283477542	-1.0964091517	 2.1859757144	-0.32229
H	 0.4894300453	 1.7878099903	 1.2390913206	 0.12937
H	 0.0329906435	 2.2228522407	-0.4800455495	 0.115497
H	 1.3473047845	 0.4093734453	-1.2135242193	 0.237009
H	-0.9144747467	-0.0433443333	-0.8529449448	 0.088626
H	-1.5992188569	-0.7121727933	 1.5640788511	 0.090779
H	-0.483269912	-3.0046093278	 1.6865750401	 0.113765
H	 0.7542571556	-2.4270724212	 0.4610447799	 0.11187
H	 1.3031466793	-0.6898724107	 1.8523835911	 0.243483
117.5501	223.0622	250.1949	456.1445	587.4428	728.8499	845.1565	871.6875	876.2601	901.2187	952.8151	973.2182	998.1093	1038.3353	1107.905	1117.0037	1122.5348	1151.3121	1187.5673	1200.3041	1255.0929	1277.7142	1294.5806	1319.7238	1396.6065	1444.1179	1502.2409	1513.7176	3107.4826	3110.366	3113.7231	3122.9274	3194.9972	3199.9742	3459.5852	3521.7108
C1NC1C1CN1	C1N[C@H]1[C@H]1CN1	
InChI=1S/C4H8N2/c1-3(5-1)4-2-6-4/h3-6H,1-2H2	InChI=1S/C4H8N2/c1-3(5-1)4-2-6-4/h3-6H,1-2H2/t3-,4-/m1/s1
