14
gdb 2233	4.98884	2.92558	2.31191	1.4069	56.62	-0.2433	0.0173	0.2607	608.8823	0.114403	-324.57608	-324.570177	-324.569233	-324.605432	22.709	
C	-0.0287080116	 1.5273113051	-0.0153247418	-0.469401
C	 0.0599046753	 0.0259518515	 0.0226326562	 0.329714
C	-0.8197808773	-0.819663737	 0.9262484387	-0.349628
C	 0.6697855251	-0.8339792827	 1.1215777357	 0.027821
O	 1.381603521	-1.8656073177	 0.4501070986	-0.211271
C	 1.1434635605	-1.6448979706	-0.869917607	 0.093936
N	 0.451375946	-0.6353272141	-1.2121207587	-0.296977
H	 0.9146112407	 1.9661281064	-0.3548897614	 0.12687
H	-0.8167051567	 1.8446673257	-0.7056512468	 0.1341
H	-0.2607519474	 1.9301361183	 0.9749052221	 0.113967
H	-1.387397564	-0.2911664314	 1.6850317754	 0.119742
H	-1.3052619278	-1.6960113141	 0.5096681028	 0.124549
H	 1.1569119032	-0.5072500164	 2.0312319983	 0.113332
H	 1.5844510229	-2.3743083929	-1.5382358521	 0.143245
183.3307	240.7937	310.5779	368.6588	442.6449	599.3784	640.6474	756.3945	767.9416	851.3876	900.4813	935.3194	943.3626	974.5315	994.3617	1038.4655	1079.6521	1101.7834	1124.7162	1140.6552	1246.2357	1287.7703	1330.5359	1387.4163	1421.2551	1468.6502	1480.4693	1498.8605	1668.5572	3037.5857	3106.2786	3113.2722	3127.6867	3196.4218	3221.0951	3229.8674
CC12CC1OC=N2	C[C@]12C[C@H]1OC=N2	
InChI=1S/C5H7NO/c1-5-2-4(5)7-3-6-5/h3-4H,2H2,1H3	InChI=1S/C5H7NO/c1-5-2-4(5)7-3-6-5/h3-4H,2H2,1H3/t4-,5+/m1/s1
