15
gdb 4827	4.78043	1.38085	1.14019	1.8862	64.25	-0.2362	-0.0002	0.236	1031.4326	0.118976	-399.83523	-399.827362	-399.826418	-399.868056	27.558	
C	 0.1373062552	 1.3698375556	 0.1462677901	-0.488697
C	-0.0129289098	-0.0955591347	-0.0461222975	 0.383126
N	-0.3151309923	-0.7418891822	-1.1273639054	-0.297616
C	-0.309826232	-2.079278315	-0.7485228149	-0.198568
C	-0.0070226389	-2.1807039416	 0.5665710219	 0.311022
C	 0.1660279627	-3.2880324004	 1.5440512598	-0.185798
O	 1.5074648925	-3.4444292554	 1.9914614241	-0.40831
O	 0.1862127042	-0.8995085582	 1.0338790308	-0.218571
H	 1.1494576893	 1.6226996595	 0.4790010204	 0.145355
H	-0.061228359	 1.8714936245	-0.8009179219	 0.1597
H	-0.5612145409	 1.7426202819	 0.902547526	 0.145723
H	-0.5259921713	-2.8696830437	-1.4499411763	 0.125558
H	-0.5165969598	-3.144084753	 2.3962436479	 0.106358
H	-0.1088097568	-4.2276068404	 1.0574095008	 0.131167
H	 1.7727067268	-2.6133638471	 2.3991862941	 0.289551
68.7777	108.0159	131.941	217.7168	272.6587	312.3373	395.9078	435.7881	624.7919	689.4401	696.7473	768.1772	864.9477	933.2516	983.7767	997.5624	1033.6049	1046.8295	1067.0282	1155.8024	1192.8241	1229.8986	1255.051	1360.2122	1375.1118	1414.9945	1418.63	1476.386	1481.3399	1488.5969	1612.7281	1649.2011	2982.7575	3044.0418	3098.1357	3100.2513	3158.5837	3263.4708	3816.9193
CC1=NC=C(CO)O1	Cc1ncc(CO)o1	
InChI=1S/C5H7NO2/c1-4-6-2-5(3-7)8-4/h2,7H,3H2,1H3	InChI=1S/C5H7NO2/c1-4-6-2-5(3-7)8-4/h2,7H,3H2,1H3
