15
gdb 2538	3.28845	2.17025	1.37727	1.9971	59.5	-0.262	0.0272	0.2891	859.9372	0.122623	-345.600227	-345.592004	-345.591059	-345.632634	28.896	
C	-0.0566030336	 1.3317697449	-0.0274871551	-0.239552
O	 0.2633706075	-0.0427496172	 0.0656379708	-0.246374
C	 0.7390711493	-0.6148323597	-1.1472235511	-0.087177
C	 1.2944095892	-1.9928714423	-0.7535573112	-0.066255
O	 2.3023050735	-1.8623607468	 0.2206765494	-0.418938
C	-0.3043616522	-0.7181472118	-2.1699203209	 0.341062
C	-1.1626905405	-0.8286629766	-3.004249509	-0.46767
H	 0.8178264744	 1.9277449207	-0.3290907068	 0.110606
H	-0.8674132186	 1.5074588422	-0.7462997028	 0.124959
H	-0.3812537097	 1.6510135644	 0.9652563572	 0.131358
H	 1.5722918306	-0.00511717	-1.5341941568	 0.100358
H	 0.4565718691	-2.6157193487	-0.4059328661	 0.104303
H	 1.7378146335	-2.4717998948	-1.6305904303	 0.119842
H	 1.9208813831	-1.3144855531	 0.9176615511	 0.290277
H	-1.9172947556	-0.9207497311	-3.7462556182	 0.203201
103.5583	129.1707	145.0455	183.5409	245.8011	273.7339	353.8398	451.1217	492.8323	539.7254	577.4608	636.7259	684.0637	826.5537	986.9842	1034.2832	1079.1352	1094.3477	1141.4225	1184.5575	1196.2556	1256.4086	1293.8691	1363.1561	1385.5786	1433.4258	1479.2149	1485.5046	1497.7578	1510.6173	2231.2895	2969.7348	2990.5368	3000.5174	3053.5833	3100.565	3123.7691	3501.1553	3788.5407
COC(CO)C#C	CO[C@@H](CO)C#C	
InChI=1S/C5H8O2/c1-3-5(4-6)7-2/h1,5-6H,4H2,2H3	InChI=1S/C5H8O2/c1-3-5(4-6)7-2/h1,5-6H,4H2,2H3/t5-/m1/s1
