14
gdb 2403	6.59275	2.09832	1.98501	1.9433	58.63	-0.248	0.002	0.25	680.6404	0.114119	-324.520219	-324.514129	-324.513185	-324.54991	23.057	
C	-0.081081244	 1.5656049767	 0.0046148862	-0.432616
C	-0.0075712174	 0.0464860717	 0.0164681627	 0.056466
C	 1.2186499222	-0.6511459401	-0.6569249374	-0.164896
N	 2.0442705315	-0.1512279202	 0.5294870775	-0.313673
C	 0.7579488278	-0.6590939857	 1.1826209511	-0.164899
C	 0.9144679592	-1.8738712286	 0.2390921497	 0.439783
O	 0.9762467854	-3.0639117683	 0.2494231915	-0.3266
H	 0.8840755655	 2.0108743506	 0.248383421	 0.146667
H	-0.3933434838	 1.9225768715	-0.9822676413	 0.11954
H	-0.8225317697	 1.9151694207	 0.7305132082	 0.119539
H	-0.9706882804	-0.4104012137	-0.2267108169	 0.087938
H	 1.5770647179	-0.5733733786	-1.682019009	 0.100036
H	 2.8299930586	-0.7783584554	 0.7235570515	 0.232682
H	 0.5907585073	-0.5903920106	 2.256238675	 0.100036
162.4085	221.2383	252.1087	334.9261	475.9542	544.3466	697.8183	758.5313	764.9521	786.5926	817.5743	887.2501	973.8291	1026.5584	1045.0047	1065.3746	1103.6302	1131.1643	1133.9886	1180.9885	1202.7544	1215.3689	1265.6026	1276.7431	1396.4038	1408.6515	1495.1045	1503.9533	1905.5922	3041.8018	3077.0915	3098.6605	3138.5918	3142.4193	3148.4854	3411.0668
CC1C2NC1C2=O	C[C@H]1[C@H]2N[C@@H]1C2=O	
InChI=1S/C5H7NO/c1-2-3-5(7)4(2)6-3/h2-4,6H,1H3	InChI=1S/C5H7NO/c1-2-3-5(7)4(2)6-3/h2-4,6H,1H3/t2-,3+,4-
