13
gdb 657	5.24143	5.03103	2.79755	2.2186	49.97	-0.2453	0.0278	0.2732	479.7591	0.111001	-286.504546	-286.49943	-286.498486	-286.532964	18.772	
C	-0.0176235817	 1.5287430925	-0.0033558475	-0.233181
C	 1.4155531424	 2.0455375811	 0.0150644832	-0.063036
O	 2.1417094464	 1.5102533913	 1.1323406796	-0.224096
C	 1.8438852121	 0.2305729777	 1.4696648484	 0.134241
N	 0.9430518527	-0.5351797865	 1.0230139231	-0.266
C	 0.0182855314	-0.0032114576	 0.0239988059	-0.146195
H	-0.5461601598	 1.9045874519	 0.8800128948	 0.116693
H	-0.5420234424	 1.9051248782	-0.8877197743	 0.104733
H	 1.9421705268	 1.7611015458	-0.9057418791	 0.112447
H	 1.4698923059	 3.1317876396	 0.1188249863	 0.118473
H	 2.5236153597	-0.1068713985	 2.2505468434	 0.1222
H	-0.9764796215	-0.4096990607	 0.2366595946	 0.112301
H	 0.303670318	-0.3988812548	-0.9603046485	 0.111419
160.0803	275.6807	474.3381	490.7881	541.989	777.9268	846.168	876.1669	916.7541	936.1783	967.3222	1051.4904	1063.2528	1142.0545	1165.9936	1229.7621	1251.999	1300.8547	1363.2419	1367.903	1404.6417	1419.4731	1479.5395	1488.2899	1512.4627	1736.7829	3014.8418	3021.2203	3040.5519	3060.6204	3089.3723	3101.1966	3154.9496
C1COC=NC1	C1COC=NC1	
InChI=1S/C4H7NO/c1-2-5-4-6-3-1/h4H,1-3H2	InChI=1S/C4H7NO/c1-2-5-4-6-3-1/h4H,1-3H2
