16
gdb 1736	4.97599	1.77514	1.61542	3.9064	64.46	-0.2908	0.0328	0.3236	815.681	0.136379	-288.651313	-288.643868	-288.642924	-288.682772	27.298	
C	 0.0111706705	 1.5804813529	 0.2608513151	-0.466845
C	-0.0154964586	 0.0774847812	 0.0682228929	 0.377121
C	-1.3549498407	-0.4819952767	-0.4076381365	-0.408972
C	-1.74054742	 0.0168773435	-1.7303291344	 0.271322
N	-2.0313589645	 0.4210503774	-2.7731810398	-0.314021
C	 1.2333793573	-0.6167868217	-0.4148009523	-0.288026
C	 0.7761895816	-0.7909186868	 1.0152816553	-0.317582
H	 0.9983653731	 1.9118800731	 0.5952103839	 0.119772
H	-0.2204607354	 2.1035958026	-0.6731453828	 0.142765
H	-0.7202932578	 1.8970806941	 1.0139246859	 0.11785
H	-1.3173306618	-1.5759354537	-0.4523965383	 0.14633
H	-2.1506378919	-0.2225799347	 0.3022091806	 0.149
H	 1.1281294483	-1.458579302	-1.0910153837	 0.11932
H	 2.1099772799	-0.0069671524	-0.6031733512	 0.120103
H	 1.340632055	-0.2967844635	 1.7986780119	 0.118645
H	 0.3648379849	-1.7516891831	 1.3072311334	 0.113218
72.2714	140.9916	228.3862	318.6497	335.0469	346.4076	392.0748	398.4445	536.9586	730.1139	782.6527	873.5376	893.1127	909.7413	957.1082	968.5676	983.0323	1047.8694	1073.5606	1083.7126	1126.3917	1187.2343	1212.5801	1305.473	1329.6376	1373.3674	1424.2816	1458.7228	1472.5245	1492.7762	1500.8573	1512.4392	2360.0769	3026.9003	3033.1148	3076.2661	3090.1458	3110.3066	3129.7139	3136.2954	3208.7887	3223.4619
CC1(CC#N)CC1	CC1(CC#N)CC1	
InChI=1S/C6H9N/c1-6(2-3-6)4-5-7/h2-4H2,1H3	InChI=1S/C6H9N/c1-6(2-3-6)4-5-7/h2-4H2,1H3
