15
gdb 2380	4.64985	1.98639	1.74053	4.6502	58.57	-0.2408	0.0232	0.264	768.579	0.124823	-341.843824	-341.835988	-341.835044	-341.876168	27.554	
C	-0.02763664	 1.5733245184	-0.4590242983	-0.402499
C	-0.0553629472	 0.1203427843	-0.0538998872	 0.008479
N	 1.214127035	-0.6022546826	-0.0534697344	-0.307742
C	 0.5257714757	-0.3987841047	 1.2314983572	-0.143141
C	 1.2036616335	 0.5037441805	 2.2309394705	 0.43474
N	 0.878411208	 0.2227327915	 3.530755341	-0.532716
O	 1.9621248095	 1.4046328121	 1.9329645094	-0.358392
H	 0.8648412608	 2.0584599065	-0.0637613255	 0.17071
H	-0.0254671876	 1.6558323913	-1.551222048	 0.114985
H	-0.9147791739	 2.0947530545	-0.0833600374	 0.108674
H	-0.9348631353	-0.4305890696	-0.3895264321	 0.083424
H	 1.0924191027	-1.5643807811	-0.3575394256	 0.233977
H	 0.0142052816	-1.256905904	 1.6657309968	 0.07234
H	 0.1883614859	-0.4630483521	 3.7804581963	 0.255917
H	 1.2259658815	 0.8394947549	 4.2464450975	 0.261241
54.2146	101.0934	178.0892	212.9042	255.6452	351.2569	428.195	432.0112	574.4198	638.4843	731.3663	801.0488	806.4877	877.416	941.3323	1012.732	1019.5049	1066.6134	1093.2313	1149.5712	1195.3424	1245.9526	1262.1709	1293.2444	1397.9685	1439.4083	1470.5038	1497.8344	1500.5536	1617.0936	1799.768	3036.8876	3092.2483	3095.3234	3108.3871	3159.4574	3506.268	3605.5178	3741.6111
CC1NC1C(N)=O	C[C@H]1N[C@H]1C(=O)N	
InChI=1S/C4H8N2O/c1-2-3(6-2)4(5)7/h2-3,6H,1H3,(H2,5,7)	InChI=1S/C4H8N2O/c1-2-3(6-2)4(5)7/h2-3,6H,1H3,(H2,5,7)/t2-,3-/m1/s1
