17
gdb 2221	3.44373	2.80183	2.08965	1.252	63.9	-0.2432	0.0822	0.3255	709.7403	0.148127	-309.687405	-309.680274	-309.67933	-309.717929	27.409	
C	-0.0366862546	 1.547490123	 0.0256011132	-0.417912
C	 0.0810585798	 0.0401826424	 0.1122340963	-0.062199
C	 1.32905521	-0.7717185014	-0.1915531085	-0.124037
C	 2.5913236357	-0.0637979646	 0.3172033073	-0.222439
C	 1.9942102746	-0.0601674166	 1.763208738	-0.294163
C	 0.7353363294	-0.7464661104	 1.2151477294	 0.378476
O	 0.0890520647	-1.7828594033	 1.8720187176	-0.460365
H	 0.8557330348	 2.0565191494	 0.3992654341	 0.121178
H	-0.1883304023	 1.8687114366	-1.0109125412	 0.117672
H	-0.8892924989	 1.9099151997	 0.6112208725	 0.111251
H	-0.8034499962	-0.487656011	-0.2422037044	 0.085081
H	 1.3104899119	-1.566780784	-0.9273673163	 0.086933
H	 3.4858424117	-0.6852378013	 0.2407039665	 0.104551
H	 2.8115104315	 0.9129186779	-0.1243945529	 0.095789
H	 2.5442253833	-0.7268406605	 2.4308254348	 0.109649
H	 1.8642158956	 0.9075441289	 2.2598566933	 0.087818
H	-0.6510392011	-1.4141015347	 2.3661546103	 0.282717
165.7185	201.5602	236.2446	253.968	288.5494	374.4227	455.4147	524.2718	627.6731	708.9453	754.996	804.7675	897.2419	920.0233	955.3931	976.0367	988.5724	1043.6361	1065.9728	1116.5608	1125.8376	1153.094	1209.5856	1220.9919	1233.9677	1244.2844	1296.5305	1321.5154	1340.6629	1415.1941	1461.3533	1475.2943	1499.111	1505.8223	1512.6408	3030.4345	3041.3185	3055.6493	3084.8809	3099.5844	3108.7114	3117.5364	3126.8647	3183.1639	3796.1418
CC1C2CCC12O	C[C@H]1[C@H]2CC[C@@]12O	
InChI=1S/C6H10O/c1-4-5-2-3-6(4,5)7/h4-5,7H,2-3H2,1H3	InChI=1S/C6H10O/c1-4-5-2-3-6(4,5)7/h4-5,7H,2-3H2,1H3/t4-,5+,6+/m0/s1
