16
gdb 1769	4.61558	1.9646	1.75629	1.5588	68.07	-0.2296	0.0459	0.2755	790.4313	0.13406	-288.574763	-288.56679	-288.565846	-288.606247	29.369	
C	-0.2039924824	 1.4490310229	-0.0664770483	-0.314594
N	 0.0417436321	 0.0190682973	 0.0387898999	-0.096178
C	 1.3865360607	-0.4732810299	-0.189740156	-0.271557
C	 0.7909720829	-0.5206382685	 1.1911405824	 0.106503
C	 1.3567315383	 0.3813901248	 2.2791659037	-0.462162
C	 0.278116894	-1.7778738868	 1.6888036415	 0.306589
C	-0.1239572315	-2.817940164	 2.1383889967	-0.432978
H	 0.6537984904	 2.0887286247	 0.1914306457	 0.100325
H	-0.4855891478	 1.6707695404	-1.1008906993	 0.129296
H	-1.0456849831	 1.721967519	 0.5774907401	 0.128794
H	 1.4734453289	-1.3801840734	-0.7816679713	 0.12154
H	 2.1845062476	 0.2546447535	-0.3418389096	 0.105019
H	 1.8115503529	 1.2844550528	 1.8679502896	 0.119792
H	 0.5735970113	 0.6743655284	 2.9855778112	 0.131945
H	 2.1253332731	-0.1578911848	 2.8399674808	 0.13591
H	-0.4908803173	-3.7385263864	 2.5193903231	 0.191754
141.8597	162.3549	168.1839	182.7184	287.1004	311.7158	400.5822	440.8303	538.2218	549.5582	609.3148	644.0171	669.6621	759.4692	877.0237	924.8738	985.9466	1062.7776	1088.3803	1122.9601	1142.6328	1171.5381	1202.7473	1262.8126	1360.3732	1409.6994	1447.7224	1481.9025	1483.2497	1497.388	1504.1445	1509.6672	2237.4184	2982.8377	3046.1215	3069.6691	3079.2002	3104.8508	3111.2798	3131.8315	3177.369	3503.6322
CN1CC1(C)C#C	CN1C[C@]1(C)C#C	
InChI=1S/C6H9N/c1-4-6(2)5-7(6)3/h1H,5H2,2-3H3	InChI=1S/C6H9N/c1-4-6(2)5-7(6)3/h1H,5H2,2-3H3/t6-,7?/m0/s1
