16
gdb 4194	4.53514	1.58602	1.30265	1.7299	68.5	-0.2305	0.0103	0.2408	929.1474	0.132158	-379.867929	-379.860969	-379.860025	-379.899011	27.096	
O	-0.0920516472	 1.3155990761	-0.0358601314	-0.392642
N	 0.0226769468	-0.0868582126	-0.0353288674	-0.255681
C	-1.118187009	-0.6458785628	 0.0440007423	 0.477594
C	-2.494039599	-0.0216803194	 0.1658548565	-0.317054
C	-3.3583955936	-1.108038994	 0.8606876004	-0.217056
C	-2.6261299469	-2.4179842411	 0.6058896287	-0.027671
N	-2.3033904151	-2.6228099516	-0.8154278887	-0.34008
C	-1.2500607804	-2.1211037967	 0.1190346998	-0.139942
H	 0.8297394902	 1.5927954311	-0.0607993055	 0.305427
H	-2.4536842225	 0.919998313	 0.7158918197	 0.129209
H	-2.8745559985	 0.2036333266	-0.8352619099	 0.139819
H	-3.4023833979	-0.9290562073	 1.9406116516	 0.106343
H	-4.3851570557	-1.1275292491	 0.4844186534	 0.109393
H	-2.8278756995	-3.2814882098	 1.2317039015	 0.089651
H	-2.1297859206	-3.6121341318	-0.9792585288	 0.235099
H	-0.3853493511	-2.7363486606	 0.3339062178	 0.09759
107.5836	200.3788	233.6117	348.1455	373.935	439.1094	455.9628	579.0263	660.2582	677.3875	791.2556	816.9393	841.6539	866.9897	907.1114	930.0592	979.475	991.5687	1038.8535	1061.9443	1116.8954	1151.2189	1185.8982	1223.1585	1230.5612	1261.344	1294.7729	1339.6194	1354.01	1403.5387	1428.3943	1467.07	1489.6765	1758.5683	3047.2295	3065.1344	3093.139	3121.8419	3161.8586	3198.7182	3495.9822	3820.6354
ON=C1CCC2NC12	ON=C1CC[C@H]2N[C@@H]12	
InChI=1S/C5H8N2O/c8-7-4-2-1-3-5(4)6-3/h3,5-6,8H,1-2H2	InChI=1S/C5H8N2O/c8-7-4-2-1-3-5(4)6-3/h3,5-6,8H,1-2H2/t3-,5-/m1/s1
