12
gdb 4619	5.68304	1.581	1.2369	4.4606	60.53	-0.2225	-0.0608	0.1617	880.0326	0.084326	-418.526904	-418.520464	-418.51952	-418.557435	24.422	
O	-0.0602249479	 1.3940580397	 0.0111117117	-0.434493
C	 0.0316837279	 0.0328583547	 0.0027928237	 0.247395
C	 1.1850226962	-0.6711207721	-0.0082802379	-0.03727
O	 1.2150447449	-2.0214989689	-0.0161672125	-0.215139
C	 0.0554993373	-2.8066632903	-0.0136513983	 0.432292
O	 0.1831394158	-4.0020272746	-0.0207280552	-0.347742
C	-1.1855602377	-2.0511116518	-0.0014643937	-0.252939
C	-1.1984997814	-0.6989704681	 0.006269168	-0.089357
H	 0.82237504	 1.7798359748	 0.0076967453	 0.303676
H	 2.1783984155	-0.2362061024	-0.011892439	 0.12713
H	-2.0945164789	-2.6387259131	 0.0009550578	 0.133291
H	-2.1276317418	-0.1382749979	 0.01525899	 0.133156
114.4799	301.0093	335.6889	355.4319	379.1808	446.3538	507.9818	520.3581	631.6375	746.309	777.3507	792.2563	834.8082	855.9253	949.356	1006.808	1100.1816	1158.2809	1198.8801	1249.0158	1313.0832	1382.2184	1495.4211	1594.029	1701.0744	1838.0542	3190.747	3193.6389	3225.0578	3820.2887
OC1=COC(=O)C=C1	Oc1coc(=O)cc1	
InChI=1S/C5H4O3/c6-4-1-2-5(7)8-3-4/h1-3,6H	InChI=1S/C5H4O3/c6-4-1-2-5(7)8-3-4/h1-3,6H
