11
gdb 3925	8.32494	2.19524	1.73716	4.3084	55.29	-0.2698	-0.0508	0.2191	656.8842	0.080394	-339.467484	-339.462046	-339.461102	-339.496824	19.446	
O	-0.0596387696	-0.032398385	 0.0001144154	-0.251477
C	 0.0082243705	 1.1606754172	 0.0088551545	 0.191982
N	 1.1992558305	 1.9034882785	 0.0019452186	-0.009189
C	 1.28106241	 3.2770983455	 0.0119040908	 0.000047
C	 2.6095762519	 3.5915458456	 0.0002015337	-0.240445
C	 3.2714652968	 2.3301678366	-0.0168485607	 0.028336
N	 2.4274515157	 1.3170250064	-0.0157963295	-0.22383
H	-0.8643715145	 1.8400816297	 0.023441608	 0.100066
H	 0.392828003	 3.8886362887	 0.0262053159	 0.15019
H	 3.0508073182	 4.5747689725	 0.0032507561	 0.123169
H	 4.3348367074	 2.1366947043	-0.0297472928	 0.131151
134.3679	245.0556	277.9363	529.3132	616.5512	670.3804	773.1015	812.8313	858.5695	920.4437	923.7678	963.3301	1024.6903	1054.9832	1110.0535	1221.3559	1293.2772	1348.3214	1423.3707	1437.6738	1456.4562	1584.8893	1856.9319	2966.5451	3241.6812	3260.9759	3282.1695
O=CN1C=CC=N1	O=Cn1cccn1	
InChI=1S/C4H4N2O/c7-4-6-3-1-2-5-6/h1-4H	InChI=1S/C4H4N2O/c7-4-6-3-1-2-5-6/h1-4H
