14
gdb 1684	4.50558	1.82152	1.45995	4.4441	49.68	-0.255	0.0168	0.2719	809.7984	0.113943	-398.876124	-398.868677	-398.867733	-398.907888	26.524	
N	-0.0585367797	 0.8488922819	 0.0493886854	-0.536744
H	 0.3980625665	-0.0300074223	 0.2784280868	 0.253071
H	 0.4477610344	 2.6731520839	-0.1610422957	 0.307033
H	-0.7307727958	 0.6591425342	-0.6861915162	 0.247259
C	-0.7180800527	 1.3689609363	 1.2512090322	-0.142783
C	 0.0885469771	 0.9475313177	 2.4940634663	-0.072002
O	 0.2617872152	-0.4586974817	 2.5588149645	-0.416273
C	-0.7674014522	 2.9067950419	 1.2160325466	 0.423063
O	 0.0472732529	 3.4444015147	 0.3006555539	-0.363391
O	-1.4419067384	 3.5541663061	 1.9719869916	-0.345742
H	-1.7519512879	 1.017748105	 1.3731997351	 0.094256
H	 1.097841904	 1.3675319689	 2.4285037218	 0.129223
H	-0.3955435907	 1.3556302614	 3.3881067809	 0.131908
H	-0.5807288426	-0.854492748	 2.8061151766	 0.291123
79.649	129.2432	186.9343	314.5633	336.285	340.3682	376.8015	436.4806	564.2949	658.9563	728.1107	865.299	871.233	889.5308	951.5291	1003.6906	1076.5708	1124.0796	1140.4504	1230.1654	1286.4731	1303.1209	1363.4826	1387.887	1414.127	1432.5625	1499.5064	1659.5664	1867.6603	3012.1328	3042.6474	3096.3318	3455.929	3499.7692	3578.5338	3811.231
[NH3+]C(CO)C([O-])=O	N[C@@H](CO)C(=O)O	
InChI=1S/C3H7NO3/c4-2(1-5)3(6)7/h2,5H,1,4H2,(H,6,7)	InChI=1S/C3H7NO3/c4-2(1-5)3(6)7/h2,5H,1,4H2,(H,6,7)/t2-/m0/s1
