15
gdb 2426	4.2257	3.47868	2.51903	1.3274	60.97	-0.2545	0.0802	0.3347	587.7217	0.125875	-308.44089	-308.435265	-308.43432	-308.46981	22.903	
O	-0.062670085	 1.3371864138	 0.0435097674	-0.474672
C	 0.0575234904	-0.0389513143	 0.0561277052	 0.412197
C	 0.7714410017	-0.9517376999	 1.0741440384	-0.324141
C	 0.0897908675	-1.907711468	 0.0714505604	-0.042331
C	-1.171785653	-0.9876869349	-0.0811753946	-0.067008
C	-1.0873752078	-1.002155649	-1.6215808425	-0.266679
C	 0.3847142132	-0.990220887	-1.1616741527	-0.104165
H	 0.8165336488	 1.7199429831	-0.0492194629	 0.283111
H	 1.8672194101	-0.9397240082	 1.0742384613	 0.084721
H	 0.3814951265	-0.9476637831	 2.0971563497	 0.094844
H	 0.0855631575	-2.9953155974	 0.0624655206	 0.078566
H	-2.0465484138	-0.9911432882	 0.5707387245	 0.071573
H	-1.4380990482	-1.9085623621	-2.1248074395	 0.088478
H	-1.4472486622	-0.1082011267	-2.138241254	 0.101484
H	 1.3014504943	-0.9930554881	-1.7547136514	 0.064021
244.6154	301.8537	347.3033	427.3114	460.0202	645.6333	709.5719	775.4335	862.58	865.384	880.2758	913.4884	922.3045	983.151	983.7846	1023.6174	1048.9815	1072.7764	1092.5551	1116.961	1143.5661	1157.1092	1182.2342	1216.138	1223.7416	1240.7578	1284.8385	1304.9935	1381.8336	1504.8894	1511.339	3032.0405	3046.1802	3092.4655	3092.6086	3104.9175	3106.2537	3144.5947	3804.7769
OC12CC3C1CC23	O[C@@]12C[C@H]3[C@@H]1C[C@@H]23	
InChI=1S/C6H8O/c7-6-2-3-4(6)1-5(3)6/h3-5,7H,1-2H2	InChI=1S/C6H8O/c7-6-2-3-4(6)1-5(3)6/h3-5,7H,1-2H2/t3-,4-,5+,6-
