16
gdb 4053	6.40118	1.24717	1.06387	2.6455	75.64	-0.1809	-0.0115	0.1695	1079.8913	0.130557	-379.887533	-379.879621	-379.878677	-379.919671	28.946	
C	-0.0655894092	 1.3459133721	-0.1315127998	-0.329372
N	 0.0177041723	-0.0448634149	 0.2501970617	-0.051012
C	-1.1650293092	-0.9046879543	 0.1120164389	-0.25175
C	-0.5701401559	-2.3034050711	 0.0042480344	 0.385394
C	 0.8648319624	-2.1374785752	-0.1296599527	-0.278173
C	 1.1302241371	-0.815559261	-0.0033799238	 0.011785
N	-1.3183387515	-3.3421750317	 0.0574420247	-0.264938
O	-0.541860466	-4.5171080193	-0.0652264121	-0.402876
H	 0.8973357422	 1.8314317079	 0.0496585676	 0.132629
H	-0.3287607404	 1.484194826	-1.1933801447	 0.116064
H	-0.8207071325	 1.856954369	 0.4743573571	 0.132574
H	-1.8458484725	-0.793600875	 0.9613992285	 0.134728
H	-1.7185698804	-0.6409235326	-0.801734238	 0.123074
H	 1.5783777618	-2.9364109976	-0.2346529875	 0.118044
H	 2.0963619292	-0.3265568263	-0.0476014553	 0.123267
H	-1.2121778874	-5.204245636	 0.0010495811	 0.30056
93.9155	162.0095	204.2736	215.4654	254.4336	329.9313	348.5185	420.8521	479.8961	646.5707	673.7267	741.5529	762.6729	884.2182	908.6088	930.6381	973.2653	994.1966	1053.1179	1119.7367	1146.5412	1201.5826	1216.3857	1258.2309	1288.7462	1339.5007	1388.9503	1434.7608	1463.8321	1481.539	1490.6343	1522.617	1619.5234	1721.7519	2966.3078	2992.6371	3066.6477	3074.0425	3113.677	3206.5299	3287.9681	3827.7155
CN1CC(C=C1)=NO	CN1CC(=NO)C=C1	
InChI=1S/C5H8N2O/c1-7-3-2-5(4-7)6-8/h2-3,8H,4H2,1H3	InChI=1S/C5H8N2O/c1-7-3-2-5(4-7)6-8/h2-3,8H,4H2,1H3
