12
gdb 859	7.26724	2.01738	1.57904	2.0191	51.69	-0.1714	0.0648	0.2362	711.4937	0.090094	-360.535142	-360.528204	-360.52726	-360.565607	25.256	
O	 0.0887957199	 1.3298197261	 0.1755309157	-0.435246
C	 0.0790836652	-0.0166472289	 0.0005027396	 0.407387
C	 0.1655559658	-0.8177221634	-1.1172166676	-0.440374
C	 0.096047643	-2.1648440417	-0.6368810885	 0.340278
O	 0.14220411	-3.3080454604	-1.3830118221	-0.450088
C	-0.0277381607	-2.1413596832	 0.7270908226	-0.189368
N	-0.0362314172	-0.7978094744	 1.1021705218	-0.292686
H	 0.1760212593	 1.7470415128	-0.6862500388	 0.306857
H	 0.2651832285	-0.4898358481	-2.1412913448	 0.079024
H	 0.2310150451	-3.0628594451	-2.3075827492	 0.294015
H	-0.1085511608	-2.9348426678	 1.448129847	 0.115169
H	-0.1152470581	-0.444249756	 2.0386265943	 0.265031
150.3396	188.2458	221.3296	275.6237	322.762	418.2192	477.8382	588.5357	597.9689	649.0099	668.2409	707.9012	749.5707	985.3753	1017.6918	1105.7745	1153.6955	1197.4898	1203.7936	1315.2297	1351.9361	1450.056	1553.6064	1599.0176	1665.1907	3233.9237	3293.2629	3697.3783	3853.2024	3854.4225
OC1=CC(O)=CN1	Oc1cc(O)c[nH]1	
InChI=1S/C4H5NO2/c6-3-1-4(7)5-2-3/h1-2,5-7H	InChI=1S/C4H5NO2/c6-3-1-4(7)5-2-3/h1-2,5-7H
