9
gdb 3943	7.57669	2.34137	1.78864	3.6831	40.61	-0.2404	0.0261	0.2664	612.4799	0.056089	-412.548009	-412.542359	-412.541415	-412.577533	19.952	
O	-0.0812109142	 1.2816223925	 0.0422070657	-0.384271
C	 0.0573125688	-0.0342470893	 0.000355948	 0.515765
N	 1.1492198134	-0.7086487054	-0.0642809421	-0.340091
N	 0.6711004873	-2.0202956604	-0.0792165636	-0.319823
C	-0.6838198542	-2.104732357	-0.0239739485	 0.495267
O	-1.4424886796	-3.0257094049	-0.0176159848	-0.373955
O	-1.0830065314	-0.7401436392	 0.0296385429	-0.215965
H	 0.8028607126	 1.6721381894	 0.0151974958	 0.329713
H	 1.3083348174	-2.7948050658	-0.1276357133	 0.293361
124.2434	266.7397	363.2317	407.4547	444.0562	567.6131	668.1206	704.7172	762.1143	801.2261	893.9605	1010.8606	1086.2097	1206.7341	1239.3312	1389.1649	1521.6552	1719.7744	1941.5073	3707.2883	3794.0469
OC1=NNC(=O)O1	Oc1n[nH]c(=O)o1	
InChI=1S/C2H2N2O3/c5-1-3-4-2(6)7-1/h(H,3,5)(H,4,6)	InChI=1S/C2H2N2O3/c5-1-3-4-2(6)7-1/h(H,3,5)(H,4,6)
