13
gdb 599	6.09231	2.90988	2.26761	4.1979	54.41	-0.2867	0.0307	0.3174	577.6433	0.108412	-249.363949	-249.35778	-249.356836	-249.393472	22.047	
C	-0.0725933803	 1.5353359485	-0.0414057342	-0.410521
C	 0.0180586103	 0.028738119	 0.0201766218	 0.011937
C	 1.3146601492	-0.6807144774	-0.2238430529	-0.28147
C	 0.7218656286	-0.6726862788	 1.17997927	-0.164191
C	 1.3567684377	 0.0976417446	 2.2111979757	 0.282909
N	 1.8639343601	 0.7222516191	 3.0432371682	-0.341781
H	 0.8362493213	 2.0052576861	 0.3448491968	 0.14156
H	-0.2136556915	 1.8679814535	-1.0749097107	 0.125107
H	-0.9153301649	 1.9048423635	 0.551329601	 0.131933
H	-0.8734421525	-0.4947001373	-0.3139848211	 0.103491
H	 1.3153120611	-1.6293201114	-0.7480479506	 0.129297
H	 2.1996810728	-0.0743469717	-0.3809399211	 0.139484
H	 0.282613818	-1.5989520176	 1.5341686271	 0.132245
143.3998	182.8504	230.0329	343.3728	377.6472	551.0702	603.9059	761.9287	785.1797	857.4915	913.7474	945.4673	1022.9018	1078.5272	1096.6465	1128.6677	1147.1262	1200.4367	1229.2476	1370.3603	1403.2621	1427.7073	1484.7406	1492.7879	1502.207	2350.2556	3039.1531	3104.0842	3115.3915	3142.3594	3150.8136	3171.9474	3232.7741
CC1CC1C#N	C[C@H]1C[C@H]1C#N	
InChI=1S/C5H7N/c1-4-2-5(4)3-6/h4-5H,2H2,1H3	InChI=1S/C5H7N/c1-4-2-5(4)3-6/h4-5H,2H2,1H3/t4-,5-/m0/s1
