8
gdb 775	9.67134	4.03934	2.8493	5.0233	36.38	-0.2655	-0.0128	0.2527	409.3135	0.05129	-337.302324	-337.297902	-337.296958	-337.330027	15.501	
O	-0.0173309119	-0.0391972837	 0.0032394123	-0.381999
C	-0.0283619173	 1.15645104	 0.0097233847	 0.524677
N	-1.1044817087	 2.0378998581	 0.0286908886	-0.366845
C	-0.6054045358	 3.3077270569	 0.028741494	 0.092621
N	 0.682695505	 3.336354885	 0.0117526102	-0.109748
O	 1.0741270471	 1.9740712834	-0.0006645863	-0.227271
H	-2.0654254253	 1.7437929668	 0.0399364699	 0.293924
H	-1.2133324432	 4.1998248534	 0.0415410567	 0.174642
234.4219	465.9626	495.7987	625.3659	731.888	765.4003	882.19	892.5197	940.301	958.8106	1123.2199	1154.5266	1300.1884	1429.6626	1646.5286	1910.6993	3263.7827	3692.3524
O=C1NC=NO1	O=c1[nH]cno1	
InChI=1S/C2H2N2O2/c5-2-3-1-4-6-2/h1H,(H,3,4,5)	InChI=1S/C2H2N2O2/c5-2-3-1-4-6-2/h1H,(H,3,4,5)
