16
gdb 1128	5.33936	1.64693	1.31797	4.7725	57.81	-0.2486	0.0191	0.2677	901.9055	0.135762	-362.958208	-362.94998	-362.949036	-362.990904	29.418	
C	 0.0079037203	 1.5987599585	-0.0301239008	-0.38649
C	 0.0699315657	 0.0774783487	 0.0261545274	 0.156665
O	-1.2261197566	-0.3943435743	 0.3276842971	-0.442956
C	 0.5737710154	-0.521481438	-1.3026942588	-0.325765
C	 0.6775002033	-2.0404684338	-1.2410184816	 0.423763
N	 1.6380398532	-2.6005038205	-2.0220063965	-0.515834
O	-0.0586895615	-2.7261138121	-0.5430585421	-0.377705
H	 0.9979782064	 2.0310422844	-0.2063286766	 0.103396
H	-0.6658575697	 1.9234906491	-0.8297730585	 0.118195
H	-0.3786751889	 1.9865492304	 0.9159807602	 0.127112
H	 0.7813001105	-0.2177924063	 0.8179146909	 0.063704
H	-1.1684461929	-1.3615772541	 0.26192511	 0.295027
H	-0.1475935763	-0.2682572113	-2.0906464879	 0.136393
H	 1.5371348069	-0.0817916938	-1.5856700476	 0.096895
H	 2.2447940958	-2.0520109444	-2.6047327558	 0.263145
H	 1.7116416884	-3.6046838327	-2.0477311196	 0.264457
48.4339	123.3084	200.9754	208.9772	230.2914	332.3372	354.0233	459.032	464.4612	536.7164	621.2035	645.9808	698.2162	843.9047	880.7381	920.2235	956.3462	1065.2601	1091.817	1107.4857	1165.3417	1234.2305	1275.0962	1326.2866	1381.7179	1399.42	1406.2324	1446.6808	1473.4502	1486.4079	1500.8112	1618.9714	1764.1659	2939.5945	3026.8089	3038.4937	3074.4524	3109.6083	3121.5586	3602.9028	3668.5948	3742.1869
CC(O)CC(N)=O	C[C@@H](O)CC(=O)N	
InChI=1S/C4H9NO2/c1-3(6)2-4(5)7/h3,6H,2H2,1H3,(H2,5,7)	InChI=1S/C4H9NO2/c1-3(6)2-4(5)7/h3,6H,2H2,1H3,(H2,5,7)/t3-/m1/s1
