13
gdb 3538	6.61065	3.10886	2.72979	1.808	56.73	-0.2308	-0.0072	0.2236	527.1597	0.102997	-307.232824	-307.228142	-307.227197	-307.260867	19.563	
O	-0.088300037	 1.4723195431	 0.0093819456	-0.321957
C	 1.3590986946	 1.2364247952	-0.0046864236	 0.076712
C	 1.2367472073	 0.0686179405	 1.0376723438	-0.086816
C	 2.2389619676	-0.9977654524	 0.6442570492	-0.109685
C	 2.2271356251	-0.9905532415	-0.6931492341	-0.109685
C	 1.2182266852	 0.0799193282	-1.0572567665	-0.086816
C	 0.0595278666	 0.0132521468	 0.0002040317	 0.076712
H	 2.0214933334	 2.1059030082	-0.0058520583	 0.092839
H	 1.0189852575	 0.304139219	 2.077736921	 0.078923
H	 2.818910513	-1.6112340536	 1.3194647699	 0.109006
H	 2.7949957232	-1.5966483832	-1.3850835222	 0.109006
H	 0.9821322001	 0.3266275912	-2.090706981	 0.078923
H	-0.8484342465	-0.5953056613	 0.0049473015	 0.092839
372.1299	498.9834	502.0823	634.7656	682.9208	754.4064	761.4832	824.5859	876.5369	878.092	912.9661	924.8651	945.6195	962.8529	992.3352	1015.6458	1103.3742	1139.4545	1152.988	1165.4533	1171.7585	1200.7453	1243.0507	1259.4752	1329.9173	1342.4858	1630.2452	3085.6772	3090.6569	3143.9781	3147.543	3218.9596	3244.6062
O1C2C3C=CC2C13	O1[C@H]2[C@@H]3C=C[C@H]2[C@H]13	
InChI=1S/C6H6O/c1-2-4-5-3(1)6(4)7-5/h1-6H	InChI=1S/C6H6O/c1-2-4-5-3(1)6(4)7-5/h1-6H/t3-,4+,5-,6+
