16
gdb 4105	3.47594	1.76468	1.26481	2.3655	72.6	-0.1868	-0.0114	0.1754	948.5351	0.13107	-379.895569	-379.887852	-379.886908	-379.92736	29.171	
C	 0.0015195662	 1.5227262621	-0.0054128919	-0.394914
C	-0.0190835326	-0.0071325736	 0.0578277761	-0.036343
N	 0.6775371447	-0.6317164007	-1.0877962627	-0.310987
C	 1.8414960279	-1.2141537241	-0.6217100459	-0.002685
C	 1.9267802283	-1.2464902463	 0.7277215159	-0.24674
C	 0.7640483399	-0.5559822368	 1.2504895273	 0.393881
N	 0.3395146121	-0.3624928406	 2.443853567	-0.270619
O	 1.2160382168	-0.947903784	 3.3858495309	-0.401519
H	 1.0305724911	 1.8929319977	-0.0489097515	 0.125369
H	-0.5437251486	 1.8903475592	-0.8817830799	 0.109234
H	-0.4710158179	 1.9278490494	 0.8932135567	 0.144371
H	-1.0566859572	-0.3560872909	 0.088665302	 0.10876
H	 0.7260762972	-0.094269759	-1.9417272567	 0.23951
H	 2.5461977642	-1.6186810379	-1.3381782766	 0.124346
H	 2.688026363	-1.7239105217	 1.3205814243	 0.117791
H	 0.7733151949	-0.7505662528	 4.217285025	 0.300542
108.0671	166.627	220.5138	264.159	311.1651	317.1361	397.0196	479.4459	510.6058	564.3844	677.2006	712.9687	780.5994	811.6178	852.9155	913.3575	935.0837	972.3327	1037.7545	1087.4518	1095.7337	1116.7405	1163.6912	1241.3414	1286.4836	1338.0756	1372.7958	1395.4081	1399.9061	1445.2039	1491.0366	1495.7916	1622.6153	1719.8117	3032.3903	3046.9575	3105.4638	3125.7091	3212.3375	3286.2644	3593.0291	3826.0432
CC1NC=CC1=NO	C[C@H]1NC=CC1=NO	
InChI=1S/C5H8N2O/c1-4-5(7-8)2-3-6-4/h2-4,6,8H,1H3	InChI=1S/C5H8N2O/c1-4-5(7-8)2-3-6-4/h2-4,6,8H,1H3/t4-/m1/s1
