14
gdb 39	23.44662	3.60588	3.38683	0.	45.71	-0.317	0.0937	0.4107	426.2996	0.131708	-158.340943	-158.33517	-158.334226	-158.36894	19.668	
C	-0.0300762365	 1.5580491185	 0.0298077353	-0.377162
C	 0.0070727666	 0.0283487713	-0.0071252863	-0.141333
C	 0.7132079171	-0.529893401	-1.2476558065	-0.141332
C	 0.7503689539	-2.0595936566	-1.2845895682	-0.377163
H	 0.9819532966	 1.9784511298	 0.0280079667	 0.112295
H	-0.5558243303	 1.9621234331	-0.8427015713	 0.112283
H	-0.5408376162	 1.9269275491	 0.9249369686	 0.109536
H	 0.5092867188	-0.3490904869	 0.893613189	 0.09219
H	-1.0173348095	-0.3654229859	 0.0320739321	 0.09219
H	 0.2109894814	-0.1524576993	-2.1483930207	 0.09219
H	 1.7376133058	-0.1361162467	-1.2868567224	 0.09219
H	 1.2761685378	-2.4636641007	-0.4121098024	 0.112283
H	-0.2616569942	-2.4800044697	-1.2827355161	 0.112295
H	 1.2610849089	-2.4284644351	-2.1797480278	 0.109537
120.7513	231.2785	257.7336	266.1636	423.7993	733.5856	810.2212	842.5216	959.8107	980.3887	1019.5775	1068.0157	1170.3066	1212.6412	1290.9792	1323.6095	1331.7893	1394.5792	1412.2115	1414.1754	1483.6256	1490.1895	1500.4186	1501.693	1506.342	1512.8342	3008.7625	3016.6184	3028.1097	3028.5607	3030.5396	3053.5221	3092.34	3096.1567	3099.2095	3100.0415
CCCC	CCCC	
InChI=1S/C4H10/c1-3-4-2/h3-4H2,1-2H3	InChI=1S/C4H10/c1-3-4-2/h3-4H2,1-2H3
