14
gdb 973	3.70058	3.2529	1.74999	0.8011	59.47	-0.1768	0.0585	0.2353	694.6721	0.113634	-324.613156	-324.605898	-324.604954	-324.644885	25.999	
C	 0.0620916311	 1.5252983137	 0.0034146185	-0.513689
C	 0.0511421676	 0.0265304646	 0.0095529298	 0.150327
C	-0.0337274132	-0.8044044199	-1.0846776405	 0.29296
O	-0.1216368387	-0.5738181433	-2.4226614463	-0.43758
N	-0.0173470185	-2.1051605587	-0.6712887344	-0.287972
C	 0.0784998904	-2.1399725402	 0.7077923609	-0.094876
C	 0.120871343	-0.8442502324	 1.1479574525	-0.224035
H	 0.9191692151	 1.928599514	 0.5551102083	 0.129081
H	 0.1293751163	 1.9305110055	-1.0142544277	 0.092026
H	-0.8417542472	 1.9533269861	 0.45467506	 0.127249
H	-0.1592719016	 0.3775502656	-2.5603716665	 0.30338
H	-0.0660990429	-2.8939985478	-1.2912951819	 0.263333
H	 0.1089306032	-3.0780411469	 1.2361227949	 0.113369
H	 0.1966278254	-0.5300332803	 2.1784302625	 0.086425
33.5774	175.2767	236.6939	261.0122	292.3385	415.1986	444.3431	625.8423	630.3891	634.9984	693.8505	737.3459	810.9104	912.371	978.0984	1058.4353	1076.2882	1095.7757	1165.4833	1219.4501	1275.2077	1359.6728	1412.7376	1424.0328	1475.5824	1504.8594	1530.4128	1554.666	1655.1911	3010.1504	3060.4314	3070.6655	3239.1233	3277.2873	3690.5502	3841.53
CC1=C(O)NC=C1	Cc1c(O)[nH]cc1	
InChI=1S/C5H7NO/c1-4-2-3-6-5(4)7/h2-3,6-7H,1H3	InChI=1S/C5H7NO/c1-4-2-3-6-5(4)7/h2-3,6-7H,1H3
