15
gdb 4621	5.58086	1.53939	1.21633	6.8716	72.51	-0.2119	-0.0104	0.2014	950.9931	0.120997	-362.717876	-362.71082	-362.709876	-362.749435	26.041	
C	 0.0131860471	 1.4916343778	 0.0099255881	-0.347681
N	-0.0436278063	 0.0363881642	 0.0025670596	-0.071773
C	-0.0208773694	-0.6583799331	-1.1814999582	 0.040317
C	 0.0233831318	-2.0098965874	-1.2279985441	-0.276026
C	 0.0592895488	-2.8280664788	-0.0136309606	 0.375769
O	 0.0993723172	-4.0549744832	-0.0205658141	-0.402752
C	 0.0381605392	-2.0231586443	 1.2098898249	-0.276005
C	-0.0065745679	-0.6712097724	 1.1786320334	 0.040262
H	 1.0467231697	 1.8576487606	 0.0025560464	 0.147345
H	-0.50376516	 1.8834818761	-0.8684703758	 0.148693
H	-0.4876369949	 1.8737049468	 0.9018264341	 0.148687
H	-0.0453731433	-0.0430236542	-2.074016419	 0.126079
H	 0.027595844	-2.5166711975	-2.1854896008	 0.1105
H	 0.0539528121	-2.5402996125	 2.1616994004	 0.11049
H	-0.0202317082	-0.0656248921	 2.0780317656	 0.126094
82.939	109.0958	225.9277	345.1794	419.8082	461.0747	466.1021	469.2641	653.0142	725.4826	772.3177	811.6942	822.0313	868.8475	960.2204	967.8116	1015.336	1048.102	1148.0528	1157.3716	1213.6461	1241.859	1249.3769	1387.2785	1435.9951	1471.6271	1477.3242	1489.0249	1521.2607	1593.9587	1683.4599	1735.2915	3030.8398	3105.5114	3139.3902	3187.2514	3189.8396	3213.4747	3215.2918
CN1C=CC(=O)C=C1	Cn1ccc(=O)cc1	
InChI=1S/C6H7NO/c1-7-4-2-6(8)3-5-7/h2-5H,1H3	InChI=1S/C6H7NO/c1-7-4-2-6(8)3-5-7/h2-5H,1H3
