13
gdb 1261	7.79011	1.06645	0.9491	4.7432	61.49	-0.2573	-0.0481	0.2092	1157.3028	0.098529	-344.431301	-344.422854	-344.42191	-344.465251	27.325	
C	 0.0029992888	 1.4869542369	-0.0522396408	-0.478446
C	-0.0189369226	-0.024011159	 0.0654934139	 0.253419
O	-0.0470811541	-0.6038744247	 1.1294920423	-0.272477
C	-0.0039014366	-0.7442501441	-1.1944960031	 0.042722
C	 0.008639459	-1.341938689	-2.2429047687	 0.085022
C	 0.024338808	-2.0398471491	-3.5200093974	-0.216686
O	 0.0013864749	-3.4412187502	-3.3071633582	-0.401032
H	 0.8985664206	 1.8093658748	-0.5943128861	 0.145725
H	-0.8620229586	 1.8322760459	-0.628708984	 0.145719
H	-0.0106986273	 1.929826173	 0.9446423163	 0.14431
H	-0.8440002106	-1.7028546191	-4.1103674972	 0.128358
H	 0.9238883357	-1.7265383629	-4.0756630302	 0.128363
H	 0.0126015129	-3.8658272027	-4.1711628469	 0.295001
42.3437	85.9375	115.2709	141.0737	201.885	217.3164	372.8084	401.3982	494.2353	602.0843	627.081	678.6306	951.6556	1012.6122	1017.2689	1043.251	1080.0803	1229.3119	1248.0183	1263.9245	1382.1041	1456.8407	1460.9544	1469.2334	1490.8477	1770.9	2332.7958	2962.9061	2981.4575	3039.2939	3103.7303	3152.136	3819.6529
CC(=O)C#CCO	CC(=O)C#CCO	
InChI=1S/C5H6O2/c1-5(7)3-2-4-6/h6H,4H2,1H3	InChI=1S/C5H6O2/c1-5(7)3-2-4-6/h6H,4H2,1H3
