17
gdb 3263	3.36273	3.28831	1.81274	0.9605	65.78	-0.2326	0.0203	0.2529	722.748	0.150653	-309.720734	-309.714274	-309.713329	-309.75101	24.77	
C	-0.027759921	 1.3462839723	-0.0474714399	-0.067082
C	 1.2537048313	 2.1776514332	 0.0637012729	-0.24764
C	 2.0730591717	 1.9822980385	 1.3167422991	-0.053996
C	 2.3499402313	 0.8346031131	 1.9379114176	-0.053996
C	 1.9131225602	-0.5556876013	 1.5430716218	-0.247641
C	 0.466659662	-0.7031218107	 1.0617288872	-0.067082
O	 0.1876189033	-0.0464002021	-0.1585802479	-0.240007
H	-0.6844475823	 1.5604592579	 0.8115143876	 0.086458
H	-0.5616955406	 1.6366053409	-0.9591305895	 0.100713
H	 1.8756985839	 1.9645512744	-0.818248413	 0.118915
H	 0.9679185415	 3.2335244417	-0.0189101917	 0.098631
H	 2.513993911	 2.888738075	 1.7268531544	 0.084005
H	 2.9973187826	 0.8853179767	 2.8111679644	 0.084005
H	 2.5758946199	-0.9378068772	 0.7526025083	 0.118915
H	 2.0449825118	-1.2309988426	 2.3974333706	 0.098631
H	 0.2586060987	-1.7635958227	 0.8811605766	 0.100713
H	-0.2229940553	-0.3523104971	 1.8467611914	 0.086458
101.3533	192.8817	324.4263	346.9887	416.5764	463.583	520.1035	685.6728	721.304	770.8761	847.4659	873.8608	963.3293	967.0825	1001.9319	1044.3673	1062.1746	1068.6555	1096.5912	1158.3753	1227.9551	1236.702	1272.0641	1310.5227	1335.656	1367.5289	1384.0093	1387.9368	1429.9363	1434.4593	1462.0643	1464.7285	1484.7459	1499.5808	1727.6026	2970.3563	2976.7903	3004.0114	3004.9874	3051.8418	3053.2358	3062.6213	3065.8295	3130.6717	3155.3958
C1CC=CCCO1	C1CC=CCCO1	
InChI=1S/C6H10O/c1-2-4-6-7-5-3-1/h1-2H,3-6H2	InChI=1S/C6H10O/c1-2-4-6-7-5-3-1/h1-2H,3-6H2
