17
gdb 4902	6.3055	1.16532	1.01295	3.0255	72.29	-0.1964	0.0426	0.239	1150.3475	0.142888	-363.899911	-363.891603	-363.890659	-363.933005	30.177	
C	-0.1922766568	 1.5142964751	 0.146783456	-0.500884
C	-0.0332308602	 0.0435038989	-0.0567371896	 0.330319
C	-0.2010717208	-0.740154933	-1.176974134	-0.343069
C	 0.086171718	-2.0932691284	-0.8247337515	 0.233985
C	 0.0277853616	-3.3009094884	-1.7137251359	-0.159648
O	 0.917286434	-4.333557816	-1.3044772931	-0.41489
C	 0.4275069765	-2.0920073198	 0.5095544714	-0.179661
N	 0.3511904575	-0.7965284625	 0.9619080954	-0.297595
H	 0.7407919709	 1.9929939837	 0.4703813285	 0.124722
H	-0.4965486265	 1.9873023203	-0.7895664687	 0.138071
H	-0.9562753557	 1.7490687558	 0.8987732532	 0.126213
H	-0.4988255329	-0.3805260635	-2.1514042129	 0.086159
H	-0.9675435485	-3.762363777	-1.6958103301	 0.115747
H	 0.2134542545	-3.0006914004	-2.7580356489	 0.087007
H	 1.7841019908	-3.9255340879	-1.2032024778	 0.275437
H	 0.7083132899	-2.9026911986	 1.1615668861	 0.123358
H	 0.5658540077	-0.5004236583	 1.8982736221	 0.254727
57.5871	97.7376	156.7924	208.1673	272.7154	329.7521	359.8239	440.8203	475.5006	621.3179	649.7153	669.521	728.7574	740.3823	805.0169	971.9484	980.3148	1001.5456	1013.1714	1059.8689	1061.9554	1132.5827	1171.1312	1204.2045	1260.0042	1308.9211	1359.3755	1411.0429	1418.3312	1444.5049	1448.4432	1480.6348	1502.2303	1509.8212	1548.4227	1632.5485	2968.1116	3015.0362	3037.2293	3058.2031	3123.0654	3234.3628	3271.1943	3676.004	3802.8368
CC1=CC(CO)=CN1	Cc1cc(CO)c[nH]1	
InChI=1S/C6H9NO/c1-5-2-6(4-8)3-7-5/h2-3,7-8H,4H2,1H3	InChI=1S/C6H9NO/c1-5-2-6(4-8)3-7-5/h2-3,7-8H,4H2,1H3
