16
gdb 2700	15.2928	0.85536	0.82676	4.7237	62.62	-0.2675	0.0355	0.303	1323.7647	0.135647	-325.783642	-325.775253	-325.774309	-325.817052	27.808	
C	 0.007693448	 1.3833210003	 0.0091569148	-0.231677
O	 0.0055155288	-0.0250586704	 0.001865311	-0.229976
C	-1.2892307025	-0.574185926	 0.0112941202	-0.051908
C	-1.158745075	-2.0923127349	 0.0021432851	-0.195233
C	-2.5374168448	-2.7781738653	 0.0116445341	-0.342478
C	-2.4385241367	-4.2358753763	 0.0031209495	 0.259132
N	-2.3480137967	-5.3877473471	-0.0037300248	-0.301619
H	 1.0507718448	 1.7074531262	 0.0009890553	 0.132598
H	-0.5009302418	 1.7971965765	-0.8758846909	 0.106267
H	-0.4840826908	 1.7879383353	 0.9078953243	 0.106266
H	-1.846843014	-0.2413307141	 0.9053827491	 0.087323
H	-1.8636918739	-0.2320864203	-0.8685256114	 0.087322
H	-0.5962888621	-2.3996094615	-0.8845388947	 0.133295
H	-0.5795971853	-2.408783251	 0.8747407871	 0.133295
H	-3.1092329358	-2.4773174081	 0.8977632894	 0.153697
H	-3.1258911622	-2.4681900333	-0.8603090581	 0.153697
61.7672	104.8645	105.1148	127.3867	224.2702	237.0406	365.4729	398.4021	424.112	572.8868	756.7063	869.9271	929.6404	996.6732	1044.1487	1073.5865	1122.7871	1167.8831	1180.6682	1225.2825	1226.1554	1283.5819	1300.3985	1313.5989	1372.267	1431.5676	1470.5903	1483.3042	1486.7216	1497.228	1505.8158	1532.3245	2364.6736	2935.5937	2960.0926	2972.3937	3016.4552	3036.1514	3063.4237	3070.1591	3111.2904	3119.6983
COCCCC#N	COCCCC#N	
InChI=1S/C5H9NO/c1-7-5-3-2-4-6/h2-3,5H2,1H3	InChI=1S/C5H9NO/c1-7-5-3-2-4-6/h2-3,5H2,1H3
