12
gdb 3545	5.97513	2.93734	2.52108	2.971	53.61	-0.2503	-0.0161	0.2343	547.1379	0.091679	-323.329494	-323.324515	-323.323571	-323.358079	19.286	
O	 0.0191947557	 0.059440072	 0.0132063588	-0.329177
C	 0.0011345297	 1.2538158599	 0.0805999484	 0.472747
C	-1.0604804274	 2.3052074434	 0.0686626655	-0.187299
C	-0.4479155151	 3.5204999083	 0.7069611518	-0.021609
C	 0.9540910022	 3.1978596903	 1.2071586271	-0.247905
C	 1.0441814311	 2.3632011354	-0.0871834792	-0.135378
N	-0.1157183113	 3.2282452841	-0.7097318032	-0.14689
H	-2.1145452223	 2.229443181	-0.1642661147	 0.125125
H	-1.077676889	 4.3632308824	 0.971126951	 0.113465
H	 1.5892187762	 4.0857651988	 1.1586128333	 0.125945
H	 1.0934220132	 2.6880158856	 2.1647087451	 0.118982
H	 1.9692468868	 2.2021719088	-0.6338978639	 0.111993
180.2466	387.1613	461.0592	604.6124	701.5406	747.1116	752.2007	814.0152	827.775	922.4144	943.1768	986.032	1003.6457	1026.7625	1061.5611	1095.6582	1116.6159	1149.0446	1177.6723	1227.2827	1271.7109	1305.6651	1350.5835	1498.3607	1898.0219	3057.4259	3114.7864	3168.9367	3176.3207	3215.2008
O=C1C2C3CC1N23	O=C1[C@H]2[C@H]3C[C@@H]1N23	
InChI=1S/C5H5NO/c7-5-3-1-2-4(5)6(2)3/h2-4H,1H2	InChI=1S/C5H5NO/c7-5-3-1-2-4(5)6(2)3/h2-4H,1H2/t2-,3+,4-,6?/m1/s1
