15
gdb 1631	3.12636	2.46794	1.60119	1.7101	58.66	-0.253	-0.0517	0.2013	792.2381	0.121356	-345.688916	-345.680523	-345.679579	-345.722027	28.277	
C	 0.2080320124	 1.7029660559	-0.3040638095	-0.41189
C	-0.0749029691	 0.2785820634	 0.1690270403	-0.15854
C	 0.4311485846	-0.7583483683	-0.8345176987	 0.147916
O	 0.0665250518	-1.9046598113	-0.8770692917	-0.241809
C	 0.6019548334	-0.0263594982	 1.5282660889	 0.373754
C	 0.0396093167	-1.2044344453	 2.2902696802	-0.484639
O	 1.5193854249	 0.6487134244	 1.9265816833	-0.286942
H	 1.2850909624	 1.8783971392	-0.3620083005	 0.145382
H	-0.2330993171	 1.8838554141	-1.2889000557	 0.118481
H	-0.2038456254	 2.4331825443	 0.396327778	 0.132939
H	-1.1473717672	 0.0853423621	 0.2871842661	 0.114522
H	 1.2038907659	-0.3720482455	-1.5360164195	 0.09567
H	-0.122650165	-2.0522682419	 1.6181431374	 0.16762
H	 0.7050671333	-1.4746036653	 3.1109518803	 0.14288
H	-0.9407803217	-0.9292413176	 2.6983305311	 0.144654
68.9324	78.3792	158.8643	165.0018	211.0242	266.4824	294.106	392.0558	499.9056	583.5117	610.5248	726.945	886.3443	950.4012	962.8328	995.7193	1095.7216	1118.9844	1134.8754	1178.1846	1240.3823	1329.7916	1387.3759	1409.5364	1419.9768	1467.5132	1474.3219	1487.9324	1495.1914	1802.6179	1831.947	2885.9922	3036.8939	3049.8472	3053.1801	3105.1502	3122.2228	3133.5007	3157.1503
CC(C=O)C(C)=O	C[C@@H](C=O)C(=O)C	
InChI=1S/C5H8O2/c1-4(3-6)5(2)7/h3-4H,1-2H3	InChI=1S/C5H8O2/c1-4(3-6)5(2)7/h3-4H,1-2H3/t4-/m0/s1
