17
gdb 4959	3.23593	2.19067	1.31873	1.6624	79.32	-0.1966	0.0129	0.2095	919.4567	0.14457	-326.802543	-326.795242	-326.794297	-326.833506	28.96	
C	-0.0017241016	 1.5231109432	-0.0005646926	-0.517195
C	 0.0024311678	 0.0161311885	-0.0048181933	 0.274652
C	-0.0523408899	-0.7039707766	-1.1969638926	-0.181045
C	-0.0343421905	-2.096486289	-1.2187120745	-0.132397
C	 0.0403772292	-2.7894046974	-0.0141829492	-0.108021
C	 0.0904538263	-2.0951120294	 1.1886557773	-0.172226
C	 0.0734448128	-0.6953952403	 1.2105750469	 0.230917
N	 0.1899739812	-0.0065317561	 2.4235774622	-0.589206
H	 0.8731210308	 1.9272141792	 0.5235755417	 0.134068
H	 0.0033112404	 1.9183193155	-1.0192417205	 0.124477
H	-0.8903150035	 1.9337855579	 0.5004792547	 0.117702
H	-0.1080196068	-0.1529250273	-2.1317782453	 0.082228
H	-0.076021939	-2.6294714871	-2.1619290945	 0.085188
H	 0.055209901	-3.8745226371	-0.005690784	 0.088803
H	 0.1463621673	-2.6373900138	 2.1287792671	 0.075392
H	-0.0522205182	-0.5570975229	 3.23498701	 0.242417
H	-0.2661559674	 0.8938801428	 2.4486521467	 0.244246
169.8546	184.1453	258.9119	301.6449	327.7248	424.7707	449.7505	519.1556	545.1288	591.2224	637.3055	738.7116	757.5749	771.3033	853.1325	864.0818	919.5606	951.5309	1002.6716	1057.4372	1060.1837	1089.589	1167.9891	1182.5701	1218.312	1303.663	1328.7901	1355.5104	1412.8931	1477.402	1483.5509	1509.5996	1533.4527	1624.1625	1643.6163	1662.7157	3001.5212	3053.9516	3114.498	3155.5322	3161.2557	3178.7639	3197.2212	3559.8038	3656.7049
CC1=CC=CC=C1N	Cc1ccccc1N	
InChI=1S/C7H9N/c1-6-4-2-3-5-7(6)8/h2-5H,8H2,1H3	InChI=1S/C7H9N/c1-6-4-2-3-5-7(6)8/h2-5H,8H2,1H3
