11
gdb 1378	8.57841	1.50903	1.28329	4.8725	51.51	-0.2619	-0.0944	0.1674	835.7589	0.077378	-376.595314	-376.588335	-376.58739	-376.627013	23.163	
N	 0.1262253679	 1.4407888665	 0.0062866118	-0.435499
C	 0.05206898	 0.1743100369	 0.0013871399	 0.30219
N	-1.1372371341	-0.5521405339	 0.0084563075	-0.346733
C	-2.4465581433	-0.0830780418	 0.0244350752	 0.164576
O	-2.79280137	 1.0643686384	 0.0352775015	-0.244524
C	 1.2843401863	-0.7153926062	-0.0131803922	 0.105013
O	 2.3963324994	-0.2634304311	-0.0213062396	-0.222615
H	 1.1199434458	 1.6912450466	-0.0010253167	 0.247844
H	-1.0436490215	-1.5577691872	 0.0016819909	 0.254438
H	-3.1517544317	-0.9390527222	 0.026206604	 0.087831
H	 1.1030055512	-1.814807366	-0.0164754422	 0.08748
49.9785	149.2529	179.2228	249.7562	294.1323	391.1013	527.4716	591.6042	614.2286	816.5788	906.4603	956.2079	1022.0896	1024.1099	1035.5354	1178.3986	1316.1503	1427.9299	1446.2747	1552.0745	1709.3739	1837.9821	1853.5798	2869.0101	2927.3843	3435.5072	3603.4106
N=C(NC=O)C=O	N=C(NC=O)C=O	
InChI=1S/C3H4N2O2/c4-3(1-6)5-2-7/h1-2H,(H2,4,5,7)	InChI=1S/C3H4N2O2/c4-3(1-6)5-2-7/h1-2H,(H2,4,5,7)
