17
gdb 2215	3.44206	3.20206	2.24069	1.2177	63.23	-0.2444	0.0766	0.321	669.785	0.148619	-309.692095	-309.685244	-309.684299	-309.723696	26.073	
O	-0.0276191854	 1.4108256244	-0.2409242888	-0.480857
C	 0.0040670616	 0.0324031918	 0.0069336743	 0.424016
C	 0.4933873435	-0.894457249	-1.1419687141	-0.287653
C	-0.8384135809	-1.7033618743	-1.0458873038	-0.216953
C	-1.335965708	-0.7743634894	 0.0936376213	-0.053508
C	-0.94874327	-1.2442223259	 1.5213590131	-0.216946
C	 0.3823630505	-0.4323601392	 1.4419683746	-0.287685
H	 0.8808641714	 1.733468017	-0.2582622864	 0.2737
H	 0.5899168146	-0.3453365675	-2.0818778282	 0.1022
H	 1.4195397589	-1.44722116	-0.9578758223	 0.088289
H	-1.4415859724	-1.6502418445	-1.9549261771	 0.103059
H	-0.7345810668	-2.755896977	-0.7678568578	 0.095082
H	-2.3103178116	-0.3023823851	-0.03264758	 0.068621
H	-1.6245191868	-0.8888092614	 2.3023828382	 0.103061
H	-0.8378259251	-2.3262763616	 1.6343252535	 0.095092
H	 1.3122766378	-1.0008779974	 1.5380966763	 0.08831
H	 0.4086276291	 0.4093650392	 2.1384584172	 0.102173
21.3191	209.7243	252.1357	349.7974	398.9827	402.6165	611.1869	618.2166	739.2029	754.3695	833.807	871.0725	884.8435	926.7239	927.359	964.0653	1012.8524	1031.971	1049.8503	1125.6695	1173.9227	1174.4089	1226.2148	1229.8465	1230.7615	1238.0425	1268.1829	1271.4605	1299.2564	1310.0867	1364.5285	1465.3494	1475.0353	1483.3069	1501.2787	3046.5554	3049.2433	3057.2136	3060.2009	3096.2202	3096.3752	3109.5452	3114.6199	3121.8157	3787.1739
OC12CCC1CC2	O[C@]12CC[C@H]1CC2	
InChI=1S/C6H10O/c7-6-3-1-5(6)2-4-6/h5,7H,1-4H2	InChI=1S/C6H10O/c7-6-3-1-5(6)2-4-6/h5,7H,1-4H2/t5-,6-
