13
gdb 2759	3.92029	2.59947	1.81594	3.3923	53.86	-0.2611	-0.0031	0.258	686.827	0.102749	-340.614465	-340.607735	-340.606791	-340.645368	23.859	
N	 0.3209295939	 1.4010763992	-0.199215931	-0.504603
C	 0.0932565381	 0.0092199048	 0.0427248639	-0.018959
C	-0.0688342661	-0.4275357856	 1.5123116387	-0.076569
O	-1.245267632	-1.2139901541	 1.2001252557	-0.269127
C	-1.3218685611	-0.6874891362	-0.1317201462	-0.052687
C	-2.42369029	 0.2608549359	-0.313264189	 0.279182
N	-3.2453111135	 1.0611202976	-0.4606943008	-0.320901
H	 0.4367917252	 1.5993588782	-1.1868370255	 0.242294
H	-0.4477356338	 1.9726249403	 0.1392715391	 0.248685
H	 0.8516494211	-0.5747216765	-0.4825949708	 0.110286
H	 0.7266689344	-1.0384555809	 1.9482726106	 0.122122
H	-0.3033431544	 0.4051823853	 2.1875403008	 0.116991
H	-1.3928535319	-1.480511068	-0.8840983555	 0.123287
85.8885	136.8196	235.2732	301.8366	355.914	426.7266	542.1796	606.6783	728.7909	807.9218	840.7613	915.5961	978.3444	997.3375	1017.3586	1042.3938	1152.925	1172.15	1180.9114	1264.8988	1281.8788	1337.9853	1352.4681	1439.1656	1521.82	1670.3089	2346.5211	3026.2886	3052.8523	3086.7224	3102.6446	3503.9761	3588.2764
NC1COC1C#N	N[C@H]1CO[C@H]1C#N	
InChI=1S/C4H6N2O/c5-1-4-3(6)2-7-4/h3-4H,2,6H2	InChI=1S/C4H6N2O/c5-1-4-3(6)2-7-4/h3-4H,2,6H2/t3-,4-/m0/s1
