14
gdb 2069	4.86085	2.6704	1.83343	2.8881	55.28	-0.2564	0.0168	0.2732	672.6732	0.115419	-361.714679	-361.708584	-361.707639	-361.744774	22.477	
N	-0.090032391	 1.2930959441	-0.2322698025	-0.504321
C	-0.0070081597	 0.0690598847	 0.070688284	 0.370021
C	-1.2621295952	-0.7812674648	 0.1480214422	-0.156329
O	-1.1553566282	-1.8921237631	 1.0183314839	-0.240285
C	 0.0029860564	-2.6444019844	 0.7160140613	-0.093018
C	 1.2309997659	-1.7923513258	 0.9716221244	-0.075364
O	 1.1907782803	-0.5641295809	 0.2269187193	-0.250336
H	 0.8434467074	 1.70389886	-0.3058763378	 0.221305
H	-2.0859745723	-0.1594917345	 0.4977773873	 0.148804
H	-1.4981312348	-1.1217240592	-0.8750999476	 0.11754
H	 0.004837718	-3.520274547	 1.3709832857	 0.120588
H	-0.017432624	-2.9883040477	-0.3315289271	 0.100331
H	 1.2985633241	-1.552789501	 2.0403263933	 0.120763
H	 2.1487240631	-2.3013345704	 0.6644333836	 0.120301
98.8025	184.2555	355.5645	404.9602	463.1785	485.8799	544.5714	678.9891	804.4562	900.777	909.8577	921.9063	996.1928	1037.7016	1063.7182	1130.5393	1145.0885	1166.355	1244.9004	1279.9685	1313.6649	1328.2335	1372.5859	1411.9489	1430.7241	1475.562	1491.6215	1501.575	1758.3222	2962.0464	2975.1375	3030.268	3094.9387	3099.8692	3138.8656	3459.9529
N=C1COCCO1	[NH][C]1COCCO1	
InChI=1S/C4H7NO2/c5-4-3-6-1-2-7-4/h5H,1-3H2	InChI=1S/C4H7NO2/c5-4-3-6-1-2-7-4/h5H,1-3H2
