16
gdb 1344	4.3186	2.40191	2.35399	1.9532	60.01	-0.2445	0.0284	0.2729	675.5047	0.136875	-325.805017	-325.798027	-325.797083	-325.835879	25.922	
C	-0.138664819	 1.5982284601	-0.031834762	-0.424659
C	 0.0247484324	 0.0815149303	-0.0312608372	 0.36898
C	-1.3127881538	-0.6483708119	 0.0417700311	-0.424688
C	 0.9477241873	-0.4382062521	-1.1773138116	-0.221249
N	 2.1203932388	-1.0286115959	-0.5134667693	-0.26611
C	 1.9158172368	-0.8812335783	 0.7284913559	 0.113414
O	 0.790598296	-0.279388014	 1.1696762421	-0.251681
H	 0.8385746894	 2.0894160353	-0.0414871805	 0.127109
H	-0.6921510055	 1.9176370593	-0.9209787999	 0.120527
H	-0.6863795817	 1.9332199503	 0.8537268795	 0.125666
H	-1.9151893521	-0.4214710959	-0.8439902953	 0.120529
H	-1.1577721621	-1.7303166318	 0.0830857695	 0.127096
H	-1.8763442111	-0.3447169741	 0.9286939119	 0.125685
H	 0.4497188915	-1.1944533956	-1.7944316132	 0.111913
H	 1.2661886041	 0.3694387399	-1.8459090046	 0.111915
H	 2.5883589692	-1.2066099555	 1.5153884536	 0.13555
65.6021	216.5048	254.9422	302.5393	329.0184	389.0298	433.7862	536.0091	616.6894	782.6243	835.9489	925.2279	926.4932	954.4821	976.1136	976.8883	991.2881	1034.2496	1126.178	1174.2876	1201.372	1251.2168	1288.7639	1323.9694	1338.3751	1401.7133	1417.3838	1476.4563	1484.0582	1493.9747	1497.8297	1508.4209	1707.6269	3031.4052	3035.9386	3041.6786	3065.2357	3108.5396	3113.9036	3117.3052	3120.1852	3207.9459
CC1(C)CN=CO1	CC1(C)CN=CO1	
InChI=1S/C5H9NO/c1-5(2)3-6-4-7-5/h4H,3H2,1-2H3	InChI=1S/C5H9NO/c1-5(2)3-6-4-7-5/h4H,3H2,1-2H3
