19
gdb 3512	6.66636	1.60089	1.4037	0.033	71.79	-0.2635	0.0892	0.3527	916.0061	0.172983	-273.761223	-273.754193	-273.753248	-273.792406	26.878	
C	-0.194449463	 1.3823863861	-0.2003790354	-0.270799
C	 1.2479769814	 1.1343389572	 0.1646688222	-0.270805
C	 0.2900041005	-0.0263102031	 0.0447433372	 0.017273
C	-0.1494240035	-0.7884746937	 1.2630460558	 0.05766
C	-1.4171390987	-1.6908557912	 1.1833842322	-0.228894
C	-0.6902124019	-2.7273131539	 2.0814676138	-0.208753
C	 0.6540172692	-2.0473375974	 1.7074392152	-0.228902
H	-0.8363452422	 1.8335014474	 0.5496110763	 0.108164
H	-0.4252239784	 1.6812745853	-1.2169837469	 0.108335
H	 2.0037452434	 1.263567781	-0.6022676135	 0.108336
H	 1.5747346074	 1.4188911463	 1.1597967833	 0.108164
H	 0.4085452692	-0.6441264549	-0.8434451947	 0.07255
H	-0.2447151484	-0.0972718239	 2.1098459613	 0.059633
H	-2.3647396769	-1.2751758055	 1.5352396073	 0.092257
H	-1.562812622	-2.0718380043	 0.1669442634	 0.095585
H	-0.9336005999	-2.5869593845	 3.1388583271	 0.098998
H	-0.8106585198	-3.7854246938	 1.8377252546	 0.093356
H	 1.1251538668	-2.534484128	 0.8470688346	 0.095584
H	 1.407363857	-1.9244212093	 2.4896794563	 0.092258
85.1501	128.2344	179.4325	284.2828	379.2727	442.1664	613.122	739.0934	781.6015	793.0545	826.3323	886.7892	906.0962	916.0037	934.7501	956.5778	966.771	1017.3689	1051.2614	1057.1784	1078.4698	1102.4449	1137.5463	1196.5008	1201.3641	1210.7843	1225.9298	1252.9932	1254.4047	1259.3022	1277.8357	1287.4465	1327.4442	1434.7777	1470.1021	1478.0754	1486.4109	1505.0958	1511.5282	3023.8344	3044.567	3048.7506	3056.3155	3093.9457	3099.306	3114.3919	3122.388	3127.2425	3132.6305	3204.6165	3219.8402
C1CC1C1CCC1	C1CC1C1CCC1	
InChI=1S/C7H12/c1-2-6(3-1)7-4-5-7/h6-7H,1-5H2	InChI=1S/C7H12/c1-2-6(3-1)7-4-5-7/h6-7H,1-5H2
