13
gdb 1643	5.27825	1.80477	1.36742	2.0674	51.44	-0.2585	-0.0974	0.1612	832.1298	0.098264	-381.616883	-381.60888	-381.607936	-381.649846	26.714	
C	 0.247289946	 1.4419552169	-0.0684301951	-0.476947
C	 0.1676405053	-0.0591429116	 0.0227353965	 0.311711
O	 0.1143217428	-0.6860044465	 1.0549928497	-0.268593
C	 0.1548043658	-0.8267154176	-1.3137688571	 0.244701
O	 0.2065033383	-0.2439559049	-2.3753739336	-0.299887
C	 0.0751886761	-2.3365876019	-1.2541965056	-0.125229
O	 0.0719945574	-2.8972858631	-2.5333897389	-0.421108
H	 1.1498941669	 1.7363803491	-0.6138493113	 0.160345
H	-0.5975882069	 1.8269667582	-0.6487908943	 0.160343
H	 0.2495790084	 1.8728551728	 0.9327257975	 0.147764
H	 0.9219889922	-2.7004585958	-0.6509292335	 0.136088
H	-0.8284289039	-2.6095291465	-0.6863970932	 0.13608
H	 0.1231158217	-2.152802509	-3.1517306312	 0.294733
47.2897	104.6059	114.8434	184.6163	308.7715	328.4877	351.9823	412.4627	517.641	595.3425	598.6335	813.3523	914.2892	933.3994	1057.964	1062.9525	1141.3539	1226.9798	1251.8133	1322.1402	1386.4956	1443.5551	1452.6383	1460.6124	1472.531	1791.2452	1807.7727	2991.6924	3005.5415	3048.5366	3109.1203	3163.8999	3710.4547
CC(=O)C(=O)CO	CC(=O)C(=O)CO	
InChI=1S/C4H6O3/c1-3(6)4(7)2-5/h5H,2H2,1H3	InChI=1S/C4H6O3/c1-3(6)4(7)2-5/h5H,2H2,1H3
