10
gdb 4633	6.90787	1.41348	1.17338	4.4622	58.83	-0.246	-0.0445	0.2015	907.5439	0.059703	-417.288087	-417.281752	-417.280807	-417.31871	23.135	
O	 0.0512565983	 0.0133332024	 0.0025297574	-0.357078
C	 0.0007442018	 1.1974770284	 0.0095591188	 0.494725
O	-1.1513930066	 1.9528811765	 0.0297237065	-0.197438
C	-0.7786240472	 3.2705581264	 0.0315588329	-0.136841
C	 0.5577921246	 3.355310329	 0.0133468079	 0.183387
O	 1.0627251189	 2.0553327347	-0.000683079	-0.240002
C	 1.4438395623	 4.4400604838	 0.0067774613	 0.266585
C	 2.207381263	 5.3702209062	 0.0010897892	-0.406333
H	-1.5550355088	 4.0142574641	 0.0463901923	 0.179602
H	 2.8810299336	 6.1919419485	-0.0039246872	 0.213393
136.0056	150.1345	260.8293	446.8532	448.5838	561.6863	582.5045	597.2887	641.9275	710.6588	768.4607	768.6064	790.9923	906.0929	969.1673	1055.5869	1160.0325	1257.2205	1307.8021	1687.0769	1950.3219	2241.8964	3308.4793	3498.4742
O=C1OC=C(O1)C#C	O=c1occ(o1)C#C	
InChI=1S/C5H2O3/c1-2-4-3-7-5(6)8-4/h1,3H	InChI=1S/C5H2O3/c1-2-4-3-7-5(6)8-4/h1,3H
