10
gdb 1034	8.6338	2.03384	1.64608	4.2594	50.43	-0.2599	-0.0583	0.2016	670.2078	0.067869	-359.346839	-359.341418	-359.340474	-359.376316	18.797	
O	-0.0616486474	-0.0287918214	-0.0005362094	-0.251242
C	 0.0115456049	 1.174773785	 0.0082852689	 0.081802
C	 1.2591584209	 1.9473834101	 0.0009240953	 0.146782
C	 1.3794276392	 3.3055097742	 0.0103393448	-0.06323
O	 2.6967266025	 3.6173610774	-0.0012444846	-0.134639
C	 3.3256185345	 2.4061746636	-0.017803637	 0.085382
N	 2.5387478575	 1.3894196493	-0.0172935774	-0.274696
H	-0.8996328569	 1.8144946509	 0.0231020415	 0.073021
H	 0.6829262996	 4.1269994238	 0.0243190299	 0.170571
H	 4.4039989453	 2.4280526569	-0.0292369821	 0.16625
130.815	205.1606	294.0766	494.5975	633.3389	688.2269	774.5662	810.4985	864.5228	925.3454	983.8887	1029.8402	1077.3084	1139.3794	1232.3032	1313.7016	1343.7923	1430.0689	1572.0239	1586.7336	1813.8122	2875.6959	3280.9735	3290.2795
O=CC1=COC=N1	O=Cc1cocn1	
InChI=1S/C4H3NO2/c6-1-4-2-7-3-5-4/h1-3H	InChI=1S/C4H3NO2/c6-1-4-2-7-3-5-4/h1-3H
