17
gdb 1697	4.39611	2.08442	1.84681	0.7015	70.01	-0.253	0.0529	0.3059	773.3296	0.147293	-272.5445	-272.537007	-272.536062	-272.575493	28.617	
C	-0.0843691939	 1.5396146337	-0.0057089943	-0.439716
C	-0.0229130855	 0.0043962646	-0.0016653149	 0.160231
C	 1.1464498519	-0.5456626948	-0.8962023193	-0.243873
C	 2.0301295671	-0.6795479696	 0.3712805454	-0.217001
C	 0.7542617009	-0.5557266083	 1.2442953172	-0.243871
C	-1.3364351658	-0.5674391406	-0.2450092241	 0.265229
C	-2.4207747066	-1.0490091147	-0.4459611786	-0.460267
H	 0.9077107415	 1.9647871419	 0.1780529268	 0.112575
H	-0.4431293825	 1.9105623099	-0.9704726057	 0.124268
H	-0.7624719936	 1.9023652017	 0.7725388253	 0.124268
H	 0.8932211135	-1.5146031185	-1.3310527771	 0.111529
H	 1.4910389531	 0.1194088024	-1.6922220556	 0.100139
H	 2.6084605903	-1.5998032838	 0.4729160602	 0.101603
H	 2.7101349345	 0.1663086967	 0.4998485201	 0.104766
H	 0.7931440176	 0.1015064832	 2.1167893045	 0.100138
H	 0.3649258178	-1.528151941	 1.5523088495	 0.111528
H	-3.3771006502	-1.474751483	-0.6230663295	 0.188453
121.0026	171.4093	192.002	259.2173	322.1907	344.0464	526.0392	527.4902	577.8685	617.1856	620.6048	700.543	795.3716	866.2642	908.513	921.4996	941.3839	946.0392	992.5469	1045.2442	1153.5238	1174.3444	1209.8651	1222.4469	1254.7903	1267.6306	1275.2228	1306.3047	1407.2826	1473.1105	1482.1594	1490.0294	1498.1658	1505.928	2227.6154	3034.3158	3061.2919	3062.4951	3070.8873	3106.1218	3106.9256	3112.0899	3120.631	3131.5882	3502.8388
CC1(CCC1)C#C	CC1(CCC1)C#C	
InChI=1S/C7H10/c1-3-7(2)5-4-6-7/h1H,4-6H2,2H3	InChI=1S/C7H10/c1-3-7(2)5-4-6-7/h1H,4-6H2,2H3
