14
gdb 2840	3.36305	2.53276	1.64212	3.8026	57.86	-0.2777	0.021	0.2987	748.022	0.113745	-324.573883	-324.566773	-324.565829	-324.605272	25.397	
O	 0.3493406084	 0.7212285758	 0.6974156534	-0.41932
C	-0.1528651851	 0.237403024	-0.5325954935	-0.084064
C	-1.5087660201	-0.4254777824	-0.3905789277	-0.020075
C	-1.8972986005	-1.5540763187	-1.294230705	-0.297692
C	-1.5991552008	-1.842960622	 0.1698058375	-0.160786
C	-0.3889148708	-2.5190134054	 0.5428433342	 0.275107
N	 0.60167522	-3.0280001703	 0.8599787201	-0.344947
H	 0.630562634	-0.0402254017	 1.2169157138	 0.297527
H	-0.2471461978	 1.1083524358	-1.1898747291	 0.118701
H	 0.5512079302	-0.4582920181	-1.0124856929	 0.107028
H	-2.2996185935	 0.2348980531	-0.048340436	 0.112898
H	-2.9296948947	-1.6530388302	-1.6081991115	 0.134787
H	-1.1678702021	-1.8954440855	-2.0203688562	 0.142358
H	-2.4436712571	-2.0669872445	 0.8119407828	 0.138479
68.1786	161.546	197.0147	256.8617	352.1669	384.6815	460.2926	562.1421	622.6168	773.1811	797.7949	853.7076	925.8815	982.9928	999.2844	1072.821	1086.8629	1119.2491	1122.3538	1158.4246	1210.7553	1250.4013	1356.7369	1382.7445	1413.129	1429.5415	1485.9721	1499.1566	2344.788	3000.5781	3074.3562	3144.2064	3162.1439	3176.4219	3234.0357	3805.4413
OCC1CC1C#N	OC[C@H]1C[C@H]1C#N	
InChI=1S/C5H7NO/c6-2-4-1-5(4)3-7/h4-5,7H,1,3H2	InChI=1S/C5H7NO/c6-2-4-1-5(4)3-7/h4-5,7H,1,3H2/t4-,5+/m0/s1
