12
gdb 584	13.07302	1.97457	1.86172	3.9549	47.46	-0.2762	0.0022	0.2785	647.0438	0.09542	-306.370119	-306.364013	-306.363068	-306.400339	20.641	
O	 0.051842677	 0.0688140704	 0.1403900032	-0.270429
C	 0.1746781677	 1.2474692124	 0.2824426102	 0.174269
O	 0.9732971628	 1.9943656495	-0.5106901829	-0.186591
C	 0.9960486129	 3.3840050125	-0.2431467107	 0.123843
C	 1.8508568341	 3.8937598961	 0.884571781	-0.285923
C	 2.2787075825	 4.0798381365	-0.5554252956	-0.276511
H	-0.3377857201	 1.8458379383	 1.0594826327	 0.081749
H	 0.0572110568	 3.8818757782	-0.4674274115	 0.11263
H	 1.4995384366	 4.7517283728	 1.4464576242	 0.126175
H	 2.3878895691	 3.1547033849	 1.4681764396	 0.133785
H	 3.0877851129	 3.4560322747	-0.9167519982	 0.14062
H	 2.2301953277	 5.0681679538	-0.996953912	 0.126383
60.5686	137.9592	210.1538	379.8423	458.1123	600.0888	764.7177	820.5197	861.5183	973.4676	1004.6642	1050.1998	1060.2624	1079.7537	1124.5231	1169.8298	1184.5614	1194.5449	1246.1472	1382.4736	1428.3387	1456.1409	1495.7062	1870.6837	2962.0425	3140.9757	3146.3199	3152.192	3226.7535	3241.5015
O=COC1CC1	O=COC1CC1	
InChI=1S/C4H6O2/c5-3-6-4-1-2-4/h3-4H,1-2H2	InChI=1S/C4H6O2/c5-3-6-4-1-2-4/h3-4H,1-2H2
