11
gdb 3636	9.55607	1.92129	1.59967	2.2269	60.69	-0.2281	-0.0002	0.228	706.3058	0.08027	-302.288055	-302.282301	-302.281357	-302.31742	21.484	
C	 0.0356010432	-1.2257522214	-0.0046285531	-0.453981
C	-0.0043837417	-0.0221696749	 0.0027500556	 0.247989
C	-0.0311234421	 1.3899057281	 0.0111514751	 0.107081
C	-1.1416003862	 2.22271357	 0.0302774133	-0.150442
N	-0.6683621207	 3.4868743257	 0.0313661829	-0.172494
N	 0.6784848946	 3.5567010064	 0.0143264409	-0.207976
C	 1.0702791745	 2.2912346558	 0.002040222	-0.108242
H	 0.0687414554	-2.2866730317	-0.0111031913	 0.188282
H	-2.1957182177	 1.9983692193	 0.0426478442	 0.145996
H	-1.1992305414	 4.3413203276	 0.0430858876	 0.281465
H	 2.1209220822	 2.044317215	-0.0129664572	 0.122322
165.7471	175.8396	469.2058	520.9323	535.7593	552.2484	581.1629	653.4898	661.2763	694.9353	797.0219	891.2387	948.1724	1006.7237	1062.8912	1168.7265	1227.2333	1319.0127	1358.0844	1410.6505	1493.1022	1591.7148	2236.8404	3258.2958	3273.2322	3505.9075	3675.1145
C#CC1=CNN=C1	C#Cc1c[nH]nc1	
InChI=1S/C5H4N2/c1-2-5-3-6-7-4-5/h1,3-4H,(H,6,7)	InChI=1S/C5H4N2/c1-2-5-3-6-7-4-5/h1,3-4H,(H,6,7)
