17
gdb 3131	5.65199	1.99236	1.77494	1.7879	64.07	-0.244	0.0844	0.3285	778.9352	0.147918	-309.689612	-309.682542	-309.681597	-309.720655	26.395	
C	-0.2688744164	 1.5028196138	 0.1126798081	-0.378384
C	 0.097981954	 0.0255550724	-0.0888735606	-0.297017
C	 0.9093332591	-0.5219584662	 1.043696695	 0.442471
C	 2.3773323601	-0.2227944574	 1.4169823511	-0.286739
C	 2.4540567141	-1.6463642968	 2.0729052019	-0.235583
C	 0.9871834668	-1.8531200146	 1.674986698	-0.047313
O	 0.2345506165	-0.7940814452	 2.2848570363	-0.293326
H	 0.6270493157	 2.1280658587	 0.1871275792	 0.118416
H	-0.8678062137	 1.8750181571	-0.7235412935	 0.113074
H	-0.8466853683	 1.6331357762	 1.0323286926	 0.135205
H	-0.8129211577	-0.5759794271	-0.1843307244	 0.109533
H	 0.6623785833	-0.0956876137	-1.0221390486	 0.100012
H	 3.033955505	-0.1263352726	 0.5484311037	 0.102476
H	 2.5204311068	 0.6333692388	 2.080170225	 0.107435
H	 3.1435980949	-2.3126614877	 1.5488726419	 0.103315
H	 2.6519837889	-1.6864974859	 3.1465840372	 0.11003
H	 0.4547643909	-2.7741690497	 1.463026647	 0.096397
79.6069	160.0115	202.9428	264.4244	338.3328	429.5079	492.2488	644.0989	727.4924	770.552	786.4103	874.5867	919.9363	924.2822	940.289	978.4756	997.6198	1036.3783	1066.357	1105.4501	1157.9102	1200.4767	1213.066	1217.7632	1257.9345	1269.2939	1317.1567	1351.7176	1407.1489	1452.7274	1463.5178	1473.7988	1492.4842	1497.5274	1510.5335	3027.4175	3038.7253	3060.8674	3068.6466	3069.3484	3107.4832	3112.1749	3117.4689	3128.5827	3175.9089
CCC12CCC1O2	CC[C@]12CC[C@H]1O2	
InChI=1S/C6H10O/c1-2-6-4-3-5(6)7-6/h5H,2-4H2,1H3	InChI=1S/C6H10O/c1-2-6-4-3-5(6)7-6/h5H,2-4H2,1H3/t5-,6+/m1/s1
