13
gdb 3256	6.30027	2.3818	2.1442	0.5434	53.41	-0.2559	0.0723	0.3282	621.8216	0.101225	-344.38026	-344.374613	-344.373669	-344.409553	21.628	
C	-0.031612715	 1.5060983565	-0.0351817453	-0.261613
O	 1.1564530456	 0.6955175124	 0.0574516031	-0.271371
C	-0.0982701567	 0.049078966	 0.007621496	 0.446805
C	-0.5448044122	-0.9532243095	 1.101737881	-0.3446
C	-0.8956404809	-1.9221918992	-0.0429469792	 0.038947
O	-1.8491628407	-1.257634815	-0.8787813402	-0.239048
C	-0.4573460679	-0.9627555642	-1.0731893381	-0.083498
H	-0.2670325335	 2.0827593969	 0.8577777499	 0.121634
H	-0.1658119933	 2.0305869176	-0.9798359125	 0.121855
H	 0.3132742505	-1.2751809167	 1.6976664874	 0.126473
H	-1.3749362754	-0.669000706	 1.7518311792	 0.117817
H	-0.893451598	-3.0052345526	-0.0474746961	 0.112348
H	-0.0332222425	-1.1009904161	-2.0606243452	 0.114252
145.6181	294.6388	347.6658	406.9405	497.0393	594.6008	787.6996	838.331	844.9468	864.2986	889.1781	911.137	965.5232	982.3249	1026.8936	1069.8862	1119.4564	1142.3831	1158.4273	1163.5837	1215.1974	1226.3436	1267.9581	1370.7503	1440.2895	1467.2368	1539.0211	3068.4555	3087.4709	3129.9212	3175.763	3189.5225	3204.1894
C1OC11CC2OC12	C1O[C@]21C[C@H]1O[C@@H]21	
InChI=1S/C5H6O2/c1-3-4(7-3)5(1)2-6-5/h3-4H,1-2H2	InChI=1S/C5H6O2/c1-3-4(7-3)5(1)2-6-5/h3-4H,1-2H2/t3-,4-,5+/m1/s1
