9
gdb 16	20.15852	20.15302	12.5891	0.0005	30.82	-0.2888	0.1042	0.393	155.8145	0.081231	-117.824798	-117.821426	-117.820482	-117.849087	11.041	
C	-0.0119327974	 1.5143319798	 0.010316996	-0.222941
C	 1.3029911772	 0.7788656204	-0.0061784231	-0.222793
C	 0.0086717414	 0.0076704221	 0.0020103247	-0.222925
H	-0.3054146435	 2.0170211723	 0.9253323893	 0.111459
H	-0.3227549828	 2.0268015645	-0.8934783865	 0.111459
H	 1.8849339609	 0.7914501983	-0.9211939346	 0.111429
H	 1.9022663059	 0.7816539079	 0.8976637317	 0.111428
H	-0.2708804319	-0.5128912474	 0.9113747374	 0.111442
H	-0.2882198296	-0.503104088	-0.9074082449	 0.111442
734.3894	735.6651	856.9071	892.9024	893.7059	1060.9412	1062.1157	1089.8202	1157.876	1213.1563	1213.5575	1220.8826	1473.079	1474.3973	1516.2549	3133.3921	3133.7949	3141.564	3209.7308	3210.106	3231.9021
C1CC1	C1CC1	
InChI=1S/C3H6/c1-2-3-1/h1-3H2	InChI=1S/C3H6/c1-2-3-1/h1-3H2
