16
gdb 4551	3.80996	1.75025	1.21762	3.1533	68.17	-0.1893	0.033	0.2223	969.0307	0.130822	-379.96937	-379.961112	-379.960168	-380.002839	29.454	
C	 0.0100671158	 1.4714093552	 0.0126538493	-0.343047
N	 0.0413108561	 0.0247293122	-0.0104533361	-0.020605
C	 0.1082835528	-0.7503039722	-1.1645361113	-0.240864
C	 0.1148398629	-2.0411448668	-0.7106812782	 0.336435
O	 0.1709754103	-3.1700776415	-1.4530344459	-0.440047
N	 0.0557041244	-2.0906880626	 0.6505353853	-0.39668
C	 0.0119473011	-0.8280897075	 1.0509186775	 0.341664
C	-0.0600390337	-0.3970697299	 2.4786978013	-0.50079
H	 0.9111455599	 1.8880851508	-0.4496040891	 0.142207
H	-0.8648698139	 1.8510938641	-0.5254886222	 0.142189
H	-0.0412525331	 1.8192609925	 1.0446389051	 0.145084
H	 0.1427762593	-0.317594428	-2.1486098136	 0.120703
H	 0.1581865359	-3.900590583	-0.8228026701	 0.297425
H	 0.7998294316	 0.2153833324	 2.774305968	 0.130915
H	-0.9671258736	 0.1788766055	 2.6962602642	 0.130911
H	-0.0690192157	-1.2926719811	 3.1009922859	 0.1545
25.6822	143.2124	166.2602	217.4905	285.967	306.4639	356.2411	379.1224	513.5059	614.271	635.9826	649.4703	665.3413	726.7896	815.9792	1008.7482	1048.004	1058.6133	1069.2861	1150.9845	1165.2835	1204.8782	1259.2944	1361.6291	1405.1928	1423.1034	1455.0908	1475.0552	1477.6266	1492.132	1503.4684	1537.3118	1548.7849	1665.8147	3026.8498	3035.3257	3074.7993	3089.4911	3146.5277	3149.5765	3287.2092	3802.2409
CN1C=C(O)N=C1C	Cn1cc(O)nc1C	
InChI=1S/C5H8N2O/c1-4-6-5(8)3-7(4)2/h3,8H,1-2H3	InChI=1S/C5H8N2O/c1-4-6-5(8)3-7(4)2/h3,8H,1-2H3
