12
gdb 451	7.15925	3.46557	2.4869	1.8765	46.04	-0.2439	-0.0253	0.2186	504.709	0.096958	-306.386594	-306.381259	-306.380315	-306.415468	19.062	
O	 0.0259328505	 0.0067239498	 0.0364985891	-0.293608
C	-0.0199576562	 1.2068342992	 0.0457876874	 0.36949
C	-1.2627493159	 2.097924996	 0.1255681835	-0.330453
C	-0.659012191	 3.461946427	 0.4695155186	-0.084538
O	 0.638156476	 3.4635101163	-0.1340702895	-0.246118
C	 1.1769897301	 2.1644455137	-0.0019753698	-0.176002
H	-1.7368305706	 2.1108520603	-0.8628519785	 0.143143
H	-1.9849694217	 1.7093515788	 0.8456708188	 0.135807
H	-1.2089661993	 4.3130081905	 0.0635996379	 0.121277
H	-0.5766156061	 3.5888334944	 1.560658728	 0.100978
H	 1.7603440062	 2.0454696607	 0.9273950322	 0.119946
H	 1.8357354379	 1.9494722436	-0.8482499876	 0.140078
114.1168	227.1893	453.003	465.3367	592.5667	652.1182	750.8306	839.0229	901.0957	941.3943	983.4433	1080.5516	1105.0746	1157.4146	1205.2519	1210.2809	1249.3963	1283.7913	1323.9016	1390.1229	1446.4326	1476.1826	1520.1111	1863.1706	2965.5694	2982.8857	3052.4697	3090.1155	3110.2438	3126.3903
O=C1CCOC1	O=C1CCOC1	
InChI=1S/C4H6O2/c5-4-1-2-6-3-4/h1-3H2	InChI=1S/C4H6O2/c5-4-1-2-6-3-4/h1-3H2
