12
gdb 4330	3.95631	2.0406	1.34623	3.7566	61.1	-0.2335	-0.0517	0.1818	825.5774	0.085662	-414.701113	-414.694907	-414.693962	-414.731651	23.54	
O	-0.0412976987	 1.3112530796	 0.0098755156	-0.395593
C	 0.0188552764	-0.0234073887	 0.0025309792	 0.441785
N	 1.1758564876	-0.5987963555	-0.0070514166	-0.377321
C	 1.2574937657	-1.967633485	-0.0147519891	 0.430323
N	 2.3449621285	-2.6096356861	-0.0242428247	-0.525376
O	 0.028588139	-2.7066809792	-0.0116943547	-0.230174
C	-1.139358902	-2.0610356813	-0.001684423	 0.110172
C	-1.2389612112	-0.7207441796	 0.0059430167	-0.272817
H	 0.8765242877	 1.6255804907	 0.0063430159	 0.310229
H	 2.1668514469	-3.6122970437	-0.028514378	 0.226238
H	-1.9834121547	-2.7423220483	-0.0005103914	 0.149936
H	-2.1861539253	-0.2038830829	 0.0140120902	 0.132597
101.8094	212.6533	366.6054	390.6827	516.4947	522.0136	591.7242	622.2118	722.5469	732.4404	762.6733	796.8228	828.4865	834.684	973.2386	973.4781	1066.392	1106.6084	1220.0985	1254.741	1312.1161	1388.9694	1503.4697	1614.3738	1708.6238	1764.9582	3201.9702	3256.9338	3518.9603	3734.315
OC1=NC(=N)OC=C1	OC1=CCOC(=N1)[NH]	
InChI=1S/C4H4N2O2/c5-4-6-3(7)1-2-8-4/h1-2H,(H2,5,6,7)	InChI=1S/C4H5N2O2/c5-4-6-3(7)1-2-8-4/h1,5H,2H2,(H,6,7)
