11
gdb 4956	3.28647	2.54423	1.43405	6.1168	55.61	-0.2392	-0.0595	0.1796	769.0111	0.073325	-434.595758	-434.589516	-434.588571	-434.626381	23.026	
O	-0.0196697476	-0.0246595296	 0.1640166103	-0.322534
C	-0.0231429744	 1.178378343	 0.0689564575	 0.296016
N	-1.1692289282	 1.9353259476	 0.0094280856	-0.350172
C	-1.1742284073	 3.3209967991	-0.0997905254	-0.073746
C	-0.0211833204	 3.9851469853	-0.152228678	 0.025173
O	 1.1915994319	 3.3496832142	-0.1022350947	-0.21286
C	 1.2876875338	 1.9830157875	 0.0053160049	 0.339625
O	 2.3596544474	 1.4650304803	 0.0462981407	-0.277495
H	-2.036424844	 1.4185017034	 0.0503622043	 0.273087
H	-2.1335607009	 3.8148467141	-0.1386267203	 0.149597
H	 0.0736181395	 5.0564360751	-0.2366475049	 0.153309
96.1873	192.1753	349.1016	428.4327	494.5585	520.0535	547.3781	567.2084	643.3348	721.7869	747.5538	806.8165	861.5642	938.676	1056.2341	1072.7364	1133.3583	1238.9677	1342.9865	1409.6576	1470.2565	1725.4802	1819.5437	1874.7605	3246.5502	3269.6032	3610.8313
O=C1NC=COC1=O	O=c1[nH]ccoc1=O	
InChI=1S/C4H3NO3/c6-3-4(7)8-2-1-5-3/h1-2H,(H,5,6)	InChI=1S/C4H3NO3/c6-3-4(7)8-2-1-5-3/h1-2H,(H,5,6)
