16
gdb 4124	3.75958	1.65556	1.28865	2.1755	69.6	-0.2271	0.0124	0.2395	951.6997	0.129602	-379.834021	-379.826253	-379.825309	-379.865857	29.298	
C	-0.0506054572	 1.5549263203	 0.010139625	-0.509402
C	 0.109811285	 0.0684663867	-0.0201289661	 0.234034
N	-0.7970390701	-0.853744143	 0.7477352423	-0.362514
C	 0.661829796	-0.9314298649	 0.9599185984	-0.105881
C	 1.2016080966	-1.8295017973	-0.169676174	-0.319591
C	 0.6536738254	-0.7738354853	-1.1321993344	 0.43458
N	 0.7626033332	-0.5065621903	-2.3639258832	-0.267245
O	 1.4523230753	-1.5288093362	-3.0446968013	-0.39108
H	 0.8353067041	 2.0479578312	-0.4013211187	 0.136816
H	-0.9135523007	 1.8683474266	-0.5870000146	 0.141304
H	-0.199316283	 1.9114632307	 1.0349719031	 0.116542
H	-1.1809690394	-0.2881556795	 1.5069191904	 0.227118
H	 1.1048949776	-0.7572678129	 1.9323142131	 0.102084
H	 2.2921513917	-1.8899380984	-0.2215490921	 0.127169
H	 0.7683740304	-2.8302756837	-0.2287790747	 0.129891
H	 1.465476795	-1.195690204	-3.9482417234	 0.306175
113.8044	168.7369	200.5237	227.7527	295.2062	350.52	426.6029	451.6689	507.0998	562.5726	647.9787	711.7745	798.6045	831.8788	900.0573	922.4594	974.2698	1004.1357	1025.8518	1055.2234	1084.2186	1105.3428	1126.1161	1170.7589	1220.9311	1296.3193	1336.0319	1384.068	1412.4668	1443.0598	1467.5327	1479.3335	1498.3357	1792.4229	3032.3098	3067.8894	3097.6823	3107.7263	3124.1969	3197.6669	3449.5713	3818.1713
CC12NC1CC2=NO	C[C@]12N[C@H]1CC2=NO	
InChI=1S/C5H8N2O/c1-5-3(6-5)2-4(5)7-8/h3,6,8H,2H2,1H3	InChI=1S/C5H8N2O/c1-5-3(6-5)2-4(5)7-8/h3,6,8H,2H2,1H3/t3-,5-/m0/s1
