10
gdb 1830	6.67626	2.40724	1.78937	2.4678	45.	-0.3014	-0.0204	0.281	629.7706	0.067972	-396.50754	-396.502087	-396.501143	-396.537093	19.209	
N	-0.0712657364	 1.2652702393	 0.0078685551	-0.511599
C	-0.0259222943	 0.0143600102	 0.000834894	 0.390328
C	-1.1961021136	-0.9387437904	 0.0024408465	-0.167003
O	-0.5827000972	-2.229697435	-0.0080924972	-0.234234
C	 0.7612847816	-2.1071437127	-0.0150218512	 0.511466
O	 1.5422472978	-2.9961979179	-0.0248626183	-0.344515
O	 1.1094252378	-0.7689610134	-0.0100635062	-0.227364
H	 0.8596131138	 1.6826538359	 0.0046973833	 0.249201
H	-1.8129099552	-0.8291105873	 0.8982262397	 0.166855
H	-1.8231841344	-0.8194444588	-0.8849386457	 0.166865
127.119	183.2698	377.8123	528.586	567.4289	646.4138	729.6	773.2593	881.1646	898.9796	939.2888	1035.8126	1050.4994	1091.2573	1130.4587	1203.0903	1327.3981	1377.6616	1499.7814	1818.6441	1961.2758	3070.5769	3117.9809	3499.0385
N=C1COC(=O)O1	[NH][C]1COC(=O)O1	
InChI=1S/C3H3NO3/c4-2-1-6-3(5)7-2/h4H,1H2	InChI=1S/C3H3NO3/c4-2-1-6-3(5)7-2/h4H,1H2
