15
gdb 4863	6.83515	1.30715	1.11	1.8658	64.18	-0.186	0.0568	0.2428	1037.0796	0.120367	-396.006463	-395.998483	-395.997539	-396.038897	28.421	
C	 0.0049717268	 1.3606655047	 0.0467559779	-0.2334
O	-0.0312275152	-0.064252968	 0.1279280701	-0.273484
C	-1.2576043947	-0.5954826476	 0.0249042642	 0.488347
N	-2.393692015	 0.0241228854	-0.1373065785	-0.365325
C	-3.3450934918	-0.9906780371	-0.1630042922	-0.157441
C	-2.7574738319	-2.2149209333	-0.0242893499	 0.258358
N	-3.2068240388	-3.5497119988	-0.0471269311	-0.613247
N	-1.3950474152	-1.9475466182	 0.1006997283	-0.361183
H	 1.0557817759	 1.6366376725	 0.1418179141	 0.126694
H	-0.3962881624	 1.704944495	-0.9110363846	 0.138785
H	-0.583418488	 1.8101963859	 0.8521860015	 0.138
H	-4.3948499253	-0.7694116032	-0.2823693797	 0.094829
H	-3.3836319856	-3.9165097635	 0.8842591426	 0.244245
H	-4.0671854596	-3.6285552462	-0.5753891527	 0.248927
H	-0.657680589	-2.6302376475	 0.1431559898	 0.265896
89.5151	125.1279	150.9129	214.5078	228.6607	345.9456	376.5249	467.6729	514.2485	641.8441	672.6181	725.7385	737.6746	802.9201	815.3755	984.8356	1045.6801	1077.5357	1164.8299	1176.7903	1184.2972	1223.5325	1240.4364	1286.0343	1401.8172	1459.6752	1476.5369	1496.4181	1510.0759	1609.8639	1631.1015	1660.6245	3040.1136	3109.8718	3148.9111	3246.4272	3485.2345	3591.6401	3673.6132
COC1=NC=C(N)N1	COc1ncc(N)[nH]1	
InChI=1S/C4H7N3O/c1-8-4-6-2-3(5)7-4/h2H,5H2,1H3,(H,6,7)	InChI=1S/C4H7N3O/c1-8-4-6-2-3(5)7-4/h2H,5H2,1H3,(H,6,7)
