13
gdb 1070	7.76066	2.11389	1.67889	2.5599	55.93	-0.1948	0.0329	0.2277	709.3547	0.103582	-340.661797	-340.655427	-340.654483	-340.692242	22.784	
C	 0.0002435873	 1.4081359478	 0.0397941672	-0.231279
O	 0.0047860581	-0.0138141578	 0.0020311547	-0.274384
C	 0.6224901955	-0.6262654448	 1.031475498	 0.380497
C	 0.7417909902	-1.9867626168	 1.1887936589	-0.224119
N	 1.4417373707	-2.1290032157	 2.3750936464	-0.231735
C	 1.6997184461	-0.8883466531	 2.8535388648	 0.015883
N	 1.2150419318	 0.0486952141	 2.0610005892	-0.339806
H	 1.0186190597	 1.8107084783	 0.0328795762	 0.128283
H	-0.533465544	 1.7271372406	-0.8572304996	 0.121274
H	-0.5113695592	 1.781932547	 0.9329492155	 0.128296
H	 0.4113936384	-2.8228001823	 0.5993405134	 0.129147
H	 1.7085540714	-3.0004045894	 2.8001661144	 0.267236
H	 2.2377468139	-0.7190441179	 3.7735809309	 0.130708
75.9778	167.6855	248.5915	329.1719	498.5652	500.6052	645.7131	662.267	685.0796	733.9463	788.8774	945.7772	975.6815	1074.711	1094.094	1151.2164	1180.4729	1203.682	1250.6494	1329.1671	1355.7207	1462.772	1479.6781	1487.0559	1503.0425	1525.5164	1626.1081	3029.5927	3094.0264	3136.3541	3256.1129	3295.6713	3673.628
COC1=CNC=N1	COc1c[nH]cn1	
InChI=1S/C4H6N2O/c1-7-4-2-5-3-6-4/h2-3H,1H3,(H,5,6)	InChI=1S/C4H6N2O/c1-7-4-2-5-3-6-4/h2-3H,1H3,(H,5,6)
