12
gdb 1653	5.44603	2.00059	1.47674	1.9931	47.89	-0.251	-0.0451	0.2059	774.4123	0.089078	-397.709232	-397.701624	-397.70068	-397.741402	25.503	
C	-0.0157098355	 1.3732872551	 0.012041104	-0.24215
O	 0.0251432014	-0.0612276393	-0.0327993195	-0.200597
C	 0.6296756789	-0.5801369683	-1.0938104747	 0.378653
O	 1.1312269869	 0.0526015502	-1.9940099112	-0.37411
C	 0.6209542415	-2.1260549437	-1.0499682704	 0.294363
N	 1.2443293944	-2.6294114181	-2.1409699158	-0.512794
O	 0.1192874909	-2.7639448329	-0.1524573071	-0.334158
H	 0.9972898127	 1.7829451481	 0.0244937	 0.146178
H	-0.5461984159	 1.7667770435	-0.8584617752	 0.146327
H	-0.5438234851	 1.6233547505	 0.9311093589	 0.145503
H	 1.6241509228	-1.9985479553	-2.8272421372	 0.281613
H	 1.316783997	-3.6258873196	-2.2546339018	 0.271172
63.6592	114.8402	155.8537	202.4238	308.9416	339.3514	395.4353	500.4627	516.841	641.2127	656.7893	839.6457	849.4137	1015.5795	1096.6204	1177.8627	1205.557	1268.6798	1375.5343	1475.3797	1483.1081	1493.068	1591.1835	1799.8108	1829.4197	3055.2311	3131.1329	3170.1769	3602.6193	3744.8853
COC(=O)C(N)=O	COC(=O)C(=O)N	
InChI=1S/C3H5NO3/c1-7-3(6)2(4)5/h1H3,(H2,4,5)	InChI=1S/C3H5NO3/c1-7-3(6)2(4)5/h1H3,(H2,4,5)
