14
gdb 4858	5.09612	1.47824	1.20316	2.1879	61.	-0.1969	0.0336	0.2305	967.648	0.107837	-415.878028	-415.870444	-415.869499	-415.910286	27.079	
C	-0.1718968257	 1.3538506549	-0.0801666475	-0.253331
O	 0.6114020002	 0.1663247971	 0.1024870251	-0.26504
C	 0.8260696312	-0.5499159547	-1.0008301025	 0.366742
C	 0.5501913065	-1.8145071231	-1.3756537407	-0.217287
N	 1.1355242869	-2.0699487774	-2.6216223777	-0.334741
C	 1.7041854881	-0.9498826942	-2.9320147865	 0.45539
N	 2.3417832536	-0.6173996794	-4.1056404197	-0.585065
O	 1.5825764109	 0.0381778458	-2.0119703457	-0.22222
H	 0.3377562523	 2.0596271873	-0.7436629403	 0.13704
H	-1.1549513783	 1.1045174233	-0.4957065457	 0.127696
H	-0.2882113835	 1.7979981916	 0.9092705474	 0.138349
H	-0.0093697117	-2.5620395238	-0.838566208	 0.121776
H	 2.5835909903	-1.4364909575	-4.6451543008	 0.26897
H	 3.1189344992	 0.01842618	-3.9919772874	 0.261722
66.5673	145.4311	157.0361	252.7953	296.7538	356.9358	424.5783	510.3588	623.5162	641.7973	683.3133	748.4482	772.3323	829.4812	960.2519	993.748	1032.5784	1085.154	1172.6162	1184.9074	1198.6171	1248.4933	1288.031	1433.7663	1470.3128	1486.6373	1503.208	1605.6287	1676.2732	1706.1591	3026.251	3099.8962	3146.1801	3274.8835	3562.8357	3669.0272
COC1=CN=C(N)O1	COc1cnc(N)o1	
InChI=1S/C4H6N2O2/c1-7-3-2-6-4(5)8-3/h2H,1H3,(H2,5,6)	InChI=1S/C4H6N2O2/c1-7-3-2-6-4(5)8-3/h2H,1H3,(H2,5,6)
