18
gdb 1979	7.55745	1.51368	1.39077	1.5764	65.87	-0.2074	0.0875	0.2949	927.1837	0.159007	-326.934987	-326.927108	-326.926163	-326.966983	28.049	
C	 0.2017591101	 1.3497491659	 0.1105740021	-0.237021
O	-0.2349805463	 0.0394323156	-0.1685016941	-0.241065
C	 0.4570653179	-0.5612366179	-1.2317887211	 0.13996
C	 1.844001694	-1.1735893209	-0.8796283419	-0.198381
N	 1.1974198046	-2.4913813934	-0.7442554518	-0.054087
C	 1.8811710736	-3.6567159518	-1.2496760182	-0.319009
C	-0.0102674989	-2.0148097639	-1.4441977718	-0.190246
H	 1.2567296033	 1.3799795828	 0.422221197	 0.106736
H	 0.0830507891	 2.0113328227	-0.7625827197	 0.1024
H	-0.4149698826	 1.7296878438	 0.9284817098	 0.128578
H	 0.4416116989	 0.090362016	-2.1159466255	 0.065013
H	 2.5504313497	-1.1092378609	-1.7244643363	 0.078477
H	 2.3386607294	-0.808591156	 0.0277383362	 0.102951
H	 2.7937833516	-3.8340358284	-0.6703472701	 0.119582
H	 1.2417775214	-4.5397353764	-1.1427946977	 0.1204
H	 2.1664521706	-3.5696372908	-2.3174368083	 0.083664
H	-0.9592293417	-2.2835161422	-0.9688320652	 0.11179
H	-0.0445541047	-2.2898027642	-2.5111982133	 0.080256
83.0582	120.2917	189.8069	229.9436	250.7224	303.505	334.6505	398.9523	468.8258	691.5416	829.888	860.3985	926.9418	999.327	1005.9047	1024.9429	1094.7072	1130.8176	1137.3774	1170.2705	1182.6572	1194.9336	1212.1121	1247.5792	1255.6042	1276.144	1303.6799	1340.9836	1397.1312	1452.2586	1481.3817	1484.6263	1485.2812	1489.1061	1498.4276	1509.1802	1515.0915	2905.897	2957.1414	2968.1009	2971.3102	3010.4457	3019.5241	3051.7948	3053.5703	3069.1953	3095.0898	3115.8959
COC1CN(C)C1	COC1CN(C)C1	
InChI=1S/C5H11NO/c1-6-3-5(4-6)7-2/h5H,3-4H2,1-2H3	InChI=1S/C5H11NO/c1-6-3-5(4-6)7-2/h5H,3-4H2,1-2H3
