12
gdb 709	7.66602	4.16292	4.02296	1.8604	48.16	-0.2318	0.0634	0.2952	409.078	0.09688	-269.144656	-269.140183	-269.139239	-269.172057	17.954	
C	 0.0096228793	 1.4753865751	-0.1421735978	-0.280084
C	 1.3232582945	 0.7635709148	 0.0420138199	-0.089154
C	 0.0153186994	-0.0175738391	 0.0510035384	-0.089168
C	 0.486268079	-0.7561654109	-1.2452289887	 0.023827
O	 0.7525078964	 0.2065620122	-2.2754804078	-0.238499
C	 1.7370887275	-0.0088182974	-1.2540099904	 0.023775
H	-0.3228913766	 2.042155173	 0.721436656	 0.111697
H	-0.2491704449	 1.8976681772	-1.104665344	 0.137703
H	 1.9977466745	 0.9544183362	 0.8656809799	 0.093586
H	-0.4641623789	-0.5158846539	 0.8826094534	 0.093578
H	 0.2412749526	-1.7655602137	-1.5525399576	 0.106369
H	 2.7388302171	-0.2733236236	-1.5700691012	 0.10637
399.4599	404.2749	589.2353	728.9007	734.3769	764.1358	806.1303	860.5246	880.6965	926.2337	940.9332	974.9443	1017.8725	1025.2759	1042.677	1070.5456	1104.7018	1164.2115	1229.9711	1251.5216	1273.7324	1303.0735	1395.7483	1462.9768	3142.532	3182.9127	3197.377	3202.276	3212.251	3235.7394
C1C2C1C1OC21	C1[C@H]2[C@@H]1[C@H]1O[C@@H]21	
InChI=1S/C5H6O/c1-2-3(1)5-4(2)6-5/h2-5H,1H2	InChI=1S/C5H6O/c1-2-3(1)5-4(2)6-5/h2-5H,1H2/t2-,3+,4-,5+
