17
gdb 1182	3.37325	2.03221	1.77186	2.6858	60.3	-0.2481	-0.0231	0.2251	803.6117	0.145152	-346.86454	-346.855773	-346.854829	-346.897331	30.941	
C	 0.056530114	 1.6157093604	 0.3059038959	-0.438865
C	 0.0483026774	 0.0925221149	 0.0621801976	 0.139173
C	 0.7280769565	-0.6278503223	 1.2451353945	-0.420751
C	-1.3875178651	-0.430261094	-0.1382792932	-0.081759
O	-2.2127426458	-0.2242884998	 1.0002250156	-0.428335
C	 0.8722404282	-0.1812522314	-1.1854799321	 0.153582
O	 0.4713646731	-0.7227245938	-2.1841153734	-0.257923
H	 1.0787180554	 2.0030666963	 0.3690977454	 0.124214
H	-0.4581641016	 2.1543033045	-0.4974602067	 0.122692
H	-0.4390208331	 1.8477993805	 1.2537042234	 0.124315
H	 0.1303634832	-0.4787250036	 2.1476880883	 0.141344
H	 0.8031531922	-1.7049559795	 1.0636009609	 0.125454
H	 1.7362659496	-0.2405803334	 1.4249187834	 0.114136
H	-1.8227955727	 0.0212470008	-1.0394142529	 0.101813
H	-1.3609414571	-1.5107421297	-0.305138766	 0.12048
H	-2.4895391709	 0.6963057943	 1.0076025402	 0.286325
H	 1.9307120767	 0.1673095758	-1.110264711	 0.074104
76.3354	118.6277	196.5941	206.7354	233.9539	288.275	303.4893	314.0232	342.0577	395.2325	476.7417	638.2675	745.791	896.7866	912.2374	949.6091	960.6955	997.7928	1051.0049	1077.262	1136.9149	1228.3603	1267.1807	1272.4253	1386.8454	1389.8845	1403.8533	1413.7052	1431.4054	1482.8812	1488.7345	1492.3447	1510.3766	1514.6614	1825.0271	2841.0291	3021.0715	3029.1979	3036.4662	3093.2505	3099.2948	3103.8617	3104.7751	3124.9259	3834.3567
CC(C)(CO)C=O	CC(C)(CO)C=O	
InChI=1S/C5H10O2/c1-5(2,3-6)4-7/h3,7H,4H2,1-2H3	InChI=1S/C5H10O2/c1-5(2,3-6)4-7/h3,7H,4H2,1-2H3
