17
gdb 1467	5.84912	1.21803	1.05548	0.9536	70.15	-0.2413	0.0476	0.2889	1146.8825	0.145042	-309.684571	-309.675226	-309.674282	-309.72018	30.902	
C	 0.0773643153	 1.3586487687	 0.1707436242	-0.229214
O	-0.0254724271	-0.0399936931	 0.0370636631	-0.241005
C	 0.5887070103	-0.5593241111	-1.1409272137	-0.036996
C	 2.1159255774	-0.6623488598	-0.9925264954	-0.390213
C	-0.0050456747	-1.8660584915	-1.422382294	 0.057191
C	-0.465282879	-2.9497887849	-1.6712763888	 0.097468
C	-1.0363605009	-4.2562804619	-1.9638134874	-0.499439
H	 1.1127246099	 1.7005415896	 0.3168190249	 0.104909
H	-0.3373826483	 1.8831752498	-0.7048878155	 0.103494
H	-0.5041007284	 1.6363117397	 1.0533418013	 0.12882
H	 0.3624743705	 0.1165909279	-1.9841782428	 0.08671
H	 2.5563705403	-1.0780990086	-1.9028829289	 0.124357
H	 2.5589106022	 0.3220851456	-0.8171240116	 0.114099
H	 2.3623800163	-1.316617159	-0.1526646266	 0.132812
H	-0.2609749819	-5.0280185713	-2.0228034801	 0.147188
H	-1.7447219359	-4.5575911175	-1.1842945211	 0.152442
H	-1.575759136	-4.2523124126	-2.9174313179	 0.147378
15.7681	65.0968	100.9931	136.4906	202.2722	238.8251	291.9841	307.7776	380.5812	395.4807	514.1145	539.8991	759.1102	855.8086	997.8748	1051.2679	1052.9285	1064.6653	1099.9625	1132.9401	1180.094	1191.044	1217.8095	1346.3505	1374.4402	1396.4776	1414.1396	1474.88	1477.2703	1478.8945	1481.5048	1490.7506	1498.5739	1511.2939	2376.7032	2944.5591	2972.9841	3020.3587	3026.9908	3046.7518	3087.2357	3089.2653	3112.1126	3119.4853	3132.0688
COC(C)C#CC	CO[C@@H](C)C#CC	
InChI=1S/C6H10O/c1-4-5-6(2)7-3/h6H,1-3H3	InChI=1S/C6H10O/c1-4-5-6(2)7-3/h6H,1-3H3/t6-/m0/s1
