12
gdb 869	6.96249	2.21142	1.69608	0.7781	52.25	-0.2163	0.0262	0.2425	695.4339	0.091041	-360.557411	-360.551281	-360.550336	-360.587232	22.317	
C	 0.0671720935	 1.4667766949	 0.1027757074	-0.491402
C	-0.0680487682	-0.0035607377	-0.0203108603	 0.326256
C	-1.0695513327	-0.8678475764	-0.2929405052	-0.190347
N	-0.5940599017	-2.1839270036	-0.2719042053	-0.380851
C	 0.6561882849	-2.031169202	 0.0104628953	 0.468974
O	 1.5965810891	-2.9627689805	 0.1570437785	-0.398946
O	 1.0771967598	-0.7703224142	 0.1814294363	-0.199203
H	 0.7838368982	 1.8709729964	-0.6213570888	 0.140903
H	-0.9023186664	 1.9365669379	-0.0789585415	 0.140638
H	 0.4074211598	 1.7608730661	 1.1022949986	 0.140936
H	-2.1035878152	-0.6465323032	-0.5050154567	 0.121124
H	 1.1648605689	-3.8137530577	 0.0084117916	 0.32192
159.9411	200.3835	279.5251	335.0773	436.4193	477.5489	630.984	634.9767	746.01	754.9606	843.8704	964.4117	995.0037	1046.1559	1068.8706	1136.6406	1225.1044	1236.7481	1275.5818	1419.481	1470.3104	1479.8642	1505.7926	1659.9556	1669.414	3029.2498	3079.443	3127.4746	3264.0331	3809.0278
CC1=CN=C(O)O1	Cc1cnc(O)o1	
InChI=1S/C4H5NO2/c1-3-2-5-4(6)7-3/h2H,1H3,(H,5,6)	InChI=1S/C4H5NO2/c1-3-2-5-4(6)7-3/h2H,1H3,(H,5,6)
