13
gdb 612	5.71808	3.36103	2.64621	1.4054	51.92	-0.2353	-0.0384	0.1969	527.941	0.107142	-286.46347	-286.45723	-286.456285	-286.493035	21.853	
C	-0.3635298934	 1.4110963992	-0.0597369359	-0.327516
N	 0.0436984744	 0.0077838083	-0.0249827509	-0.077046
C	 1.4446010256	-0.3040094419	-0.0943983508	-0.224907
C	 0.6874168664	-0.5482760815	 1.1858464534	-0.086416
C	 1.0206741493	 0.2885666459	 2.3713844108	 0.141562
O	 1.4566902058	 1.4167666312	 2.3345086066	-0.265682
H	 0.3285080491	 2.0931236293	 0.4459899307	 0.147202
H	-0.4524158641	 1.6996096277	-1.1115147566	 0.12676
H	-1.3511853738	 1.502826226	 0.4020365854	 0.124621
H	 1.7223319594	-1.1596531328	-0.7047407205	 0.12453
H	 2.1612275836	 0.5155537982	-0.065889766	 0.134965
H	 0.3596338942	-1.5570932579	 1.4253147522	 0.099611
H	 0.8296415935	-0.2134006717	 3.3458694317	 0.082315
143.9918	196.2861	233.8548	267.9157	368.5011	427.3222	710.9794	737.1341	793.0534	926.1669	977.9984	1025.0526	1052.1034	1098.6859	1124.3528	1137.7117	1170.9915	1215.5878	1325.8989	1385.5014	1428.4668	1446.1398	1486.9421	1495.5654	1509.8373	1799.9806	2884.4603	3028.7399	3093.2943	3102.4872	3109.525	3138.6577	3186.8031
CN1CC1C=O	CN1C[C@H]1C=O	
InChI=1S/C4H7NO/c1-5-2-4(5)3-6/h3-4H,2H2,1H3	InChI=1S/C4H7NO/c1-5-2-4(5)3-6/h3-4H,2H2,1H3/t4-,5?/m0/s1
