17
gdb 1719	4.1084	2.09916	1.84298	2.2135	59.84	-0.2427	0.0664	0.3092	762.7887	0.147392	-346.827397	-346.819595	-346.818651	-346.859253	27.993	
C	-0.1423588951	 1.6216083715	 0.0408918518	-0.467387
C	-0.0065757077	 0.104890274	 0.0179563732	 0.302336
C	-1.343251541	-0.5853832118	-0.2287614324	-0.126174
O	-1.820175538	-0.1785580873	-1.5033141964	-0.42592
C	 1.1228806524	-0.4944550015	-0.8570773396	-0.102606
O	 1.644000392	-1.2488730716	 0.2590921869	-0.276964
C	 0.7737034805	-0.5607014216	 1.1778135785	-0.12438
H	 0.8296520041	 2.1030924873	 0.1860070304	 0.112907
H	-0.5723217995	 1.9822051395	-0.8972759558	 0.139565
H	-0.8019139098	 1.9426062213	 0.8558643624	 0.111261
H	-1.2000789463	-1.6764485105	-0.1879841741	 0.094706
H	-2.0523439064	-0.3113724658	 0.570448171	 0.084061
H	-2.6422494026	-0.6432427627	-1.6832384614	 0.290488
H	 0.8087634849	-1.136719086	-1.6866171066	 0.108182
H	 1.8497801243	 0.241724583	-1.2261077605	 0.092007
H	 1.3226742963	 0.1471066783	 1.8147016085	 0.092597
H	 0.2155633918	-1.2549540262	 1.8196610542	 0.095322
84.8536	127.2174	215.0403	231.5198	246.3266	315.7169	358.7083	387.1365	490.5767	674.9145	844.9852	895.3117	910.8177	950.5533	983.6584	1004.554	1030.5045	1033.4895	1082.2519	1154.8286	1162.3351	1166.2927	1212.4951	1255.3523	1290.4165	1305.9637	1319.2157	1385.027	1408.3941	1456.2828	1490.3209	1501.8581	1510.1482	1522.0899	1538.8208	2958.1351	2993.1302	2997.5181	3009.1613	3031.1726	3038.9714	3069.9392	3094.9428	3120.5986	3836.2045
CC1(CO)COC1	CC1(CO)COC1	
InChI=1S/C5H10O2/c1-5(2-6)3-7-4-5/h6H,2-4H2,1H3	InChI=1S/C5H10O2/c1-5(2-6)3-7-4-5/h6H,2-4H2,1H3
