15
gdb 3230	5.34175	2.66284	2.31143	2.9546	60.64	-0.1972	0.0741	0.2714	630.6225	0.125269	-304.586424	-304.58037	-304.579425	-304.615778	24.154	
C	-0.0374283665	 1.5343404345	 0.0509971343	-0.509962
C	 0.0924102402	 0.045469835	 0.016485043	 0.34968
N	-0.834997591	-0.8765562203	 0.7118274924	-0.345454
C	 0.625449501	-0.9337678082	 0.9916617259	-0.119731
C	 1.3249414146	-1.7199368877	-0.1625091845	-0.0531
N	 0.2969310523	-2.1574298021	-1.1383501295	-0.306387
C	 0.7849028218	-0.757418107	-1.1462379467	-0.107335
H	 0.8904371072	 2.0189118139	-0.2740051608	 0.123681
H	-0.8419808412	 1.8795618331	-0.6095801483	 0.130515
H	-0.2599045308	 1.8853455483	 1.0646282848	 0.117822
H	-1.246419624	-0.3404241733	 1.4777770243	 0.221258
H	 1.0203448623	-0.7879179681	 1.9891457483	 0.090112
H	 2.2970897203	-2.1913751492	-0.1043622292	 0.092602
H	 0.8028979486	-2.6366480378	-1.8848699814	 0.226309
H	 1.2447840852	-0.3142815412	-2.0206457225	 0.08999
211.2542	224.679	286.3666	415.6094	437.2735	560.4296	654.9729	737.0782	792.1358	807.4277	827.4491	853.3033	884.1785	909.6319	937.262	974.4731	1001.1754	1050.049	1078.4815	1101.7941	1115.3573	1148.8609	1233.3841	1238.1226	1308.1022	1322.7452	1357.4027	1410.5085	1445.8826	1481.2706	1498.4625	3019.1392	3079.6864	3092.1975	3187.1577	3192.5563	3205.4052	3450.1276	3455.3203
CC12NC1C1NC21	C[C@]12N[C@H]1[C@H]1N[C@@H]21	
InChI=1S/C5H8N2/c1-5-3-2(6-3)4(5)7-5/h2-4,6-7H,1H3	InChI=1S/C5H8N2/c1-5-3-2(6-3)4(5)7-5/h2-4,6-7H,1H3/t2-,3+,4-,5+/m0/s1
