15
gdb 2719	8.53743	1.01945	0.94852	1.9188	55.01	-0.2633	-0.0346	0.2287	1157.709	0.12219	-382.777508	-382.769156	-382.768212	-382.81157	27.361	
O	-0.0783276329	 1.4770792246	-0.0642374541	-0.418026
C	 0.0032519714	 0.0711265471	 0.0480779699	-0.060861
C	-1.3748118288	-0.5708150307	 0.0401231566	-0.06986
O	-1.9770760407	-0.2350617601	-1.2003896832	-0.261074
C	-3.3112459509	-0.6552896556	-1.3231211225	-0.141497
C	-3.8281528044	-0.2160370288	-2.682685378	 0.140082
O	-4.9404600517	-0.4422466989	-3.0761299094	-0.232931
H	-0.6329497037	 1.6508979236	-0.8333881068	 0.28891
H	 0.6060922832	-0.3666734584	-0.7633976469	 0.097031
H	 0.5045498784	-0.1500555404	 0.9958187339	 0.1134
H	-1.3006227688	-1.6644111219	 0.1533817376	 0.094385
H	-1.9794028943	-0.1766704455	 0.8717962011	 0.102489
H	-3.4068554876	-1.7512105644	-1.2458931487	 0.126235
H	-3.955423308	-0.2202775955	-0.5405346946	 0.127428
H	-3.0770260614	 0.3393922548	-3.2870653549	 0.094287
50.7041	65.7162	100.5388	129.6705	185.8875	306.8176	385.2855	423.9058	474.6275	591.287	739.3516	871.5646	907.3108	1024.5202	1075.9786	1089.6235	1111.4777	1139.6998	1172.7892	1236.7741	1237.8143	1267.531	1344.2164	1388.5586	1396.8282	1421.3056	1441.6451	1477.5229	1498.4361	1513.5174	1847.1329	2895.0012	2964.7491	2975.1085	2982.0577	2996.4181	3017.459	3083.2077	3803.1142
OCCOCC=O	OCCOCC=O	
InChI=1S/C4H8O3/c5-1-3-7-4-2-6/h1,6H,2-4H2	InChI=1S/C4H8O3/c5-1-3-7-4-2-6/h1,6H,2-4H2
