14
gdb 644	7.69236	3.03473	2.71562	1.8101	53.28	-0.2579	0.0764	0.3343	531.2446	0.120036	-270.399529	-270.393975	-270.393031	-270.428396	20.831	
C	-0.3562999969	 1.4339518776	 0.0132547537	-0.263855
O	 1.0247095846	 1.0387325254	-0.0023412094	-0.269459
C	 0.0405367698	 0.025207971	 0.0017916896	 0.474855
C	-0.1440068838	-1.0299858078	 1.0955336959	-0.304748
C	-0.7467262244	-1.9605973018	-0.0012380969	-0.210086
C	-0.1654084265	-1.0181523287	-1.0994565642	-0.304748
H	-0.6979395716	 1.8955137743	 0.9393906563	 0.113078
H	-0.7158852809	 1.9054347179	-0.9010137754	 0.113078
H	 0.8216214097	-1.3919927553	 1.4611292965	 0.115328
H	-0.7718960262	-0.7718494117	 1.9515548124	 0.104002
H	-0.4003299091	-2.9950384223	-0.0101921989	 0.105274
H	-1.8390066556	-1.9565031384	 0.0094339144	 0.107953
H	-0.8098417513	-0.7508683915	-1.9402397218	 0.104002
H	 0.7928699722	-1.3760951386	-1.4876918323	 0.115328
112.0626	310.2171	363.6934	368.5873	549.462	708.4626	785.5135	842.2432	878.82	885.0987	916.4786	923.8601	995.2824	1030.9785	1126.0886	1138.6049	1162.1416	1164.8781	1206.1501	1223.385	1245.2581	1269.5702	1279.4155	1431.8363	1469.8637	1481.2292	1503.8903	1538.4131	3056.3231	3060.2403	3073.8892	3075.4713	3106.8281	3111.5335	3132.4095	3161.5885
C1OC11CCC1	C1OC21CCC2	
InChI=1S/C5H8O/c1-2-5(3-1)4-6-5/h1-4H2	InChI=1S/C5H8O/c1-2-5(3-1)4-6-5/h1-4H2
