14
gdb 2539	3.02762	2.44384	1.58808	4.1035	54.35	-0.2851	0.0123	0.2974	789.0501	0.112033	-361.704536	-361.696577	-361.695633	-361.736878	26.979	
C	 0.1295243685	 1.2429592848	-0.1601384583	-0.248942
O	-0.1438510375	-0.1110100037	 0.1660676213	-0.24557
C	 0.6151944257	-0.6312447721	 1.2354033498	-0.041847
C	 0.0731937328	-2.0463538611	 1.486138717	-0.068765
O	 0.1907748104	-2.8551498086	 0.3445393695	-0.407436
C	 2.0606455271	-0.6506436959	 0.9165882077	 0.28083
N	 3.190075545	-0.6329872704	 0.6743641086	-0.320532
H	 1.1680695656	 1.3766196126	-0.4879656736	 0.142741
H	-0.5444401571	 1.5095464077	-0.9760284376	 0.141609
H	-0.0625843745	 1.9031626918	 0.6975003647	 0.118009
H	 0.4831552106	-0.0212659891	 2.1442540732	 0.114307
H	 0.6422470484	-2.5234696855	 2.288864837	 0.131074
H	-0.9711692806	-1.9357707923	 1.8156039531	 0.106433
H	-0.2172721745	-2.3695880582	-0.3823041024	 0.298088
101.0595	110.4627	149.004	184.207	243.3477	290.4319	353.4109	426.8901	445.9949	602.8117	689.0525	842.518	892.5326	999.879	1065.5109	1103.9556	1151.5625	1183.4248	1200.3979	1254.9205	1307.9204	1352.587	1395.6337	1429.3664	1481.163	1488.3583	1493.5542	1508.5367	2356.2659	2976.478	2996.9707	3000.4924	3065.1535	3099.2054	3136.1231	3797.4545
COC(CO)C#N	CO[C@@H](CO)C#N	
InChI=1S/C4H7NO2/c1-7-4(2-5)3-6/h4,6H,3H2,1H3	InChI=1S/C4H7NO2/c1-7-4(2-5)3-6/h4,6H,3H2,1H3/t4-/m1/s1
