11
gdb 2748	4.84537	2.28136	1.76883	3.1806	47.8	-0.2765	-0.0518	0.2247	671.4939	0.077835	-380.417684	-380.411492	-380.410548	-380.448362	20.97	
O	-0.569935997	 0.6854026056	-0.5282018275	-0.226055
C	 0.2459102673	 0.9247123501	 0.3228203705	 0.147283
C	 1.3840372175	 1.9055287737	 0.1456402446	-0.288682
C	 1.3989919047	 2.7560351219	-1.1267939039	-0.090363
O	 1.1799603429	 3.9716593829	-0.3274923693	-0.228254
C	 1.1647167852	 3.2740587935	 0.8431633006	 0.450021
O	 1.0225802735	 3.675360892	 1.9497682176	-0.305668
H	 0.2077660875	 0.4449591521	 1.3226783234	 0.109538
H	 2.3295038796	 1.4451974392	 0.4456995079	 0.139854
H	 2.3469925256	 2.816636335	-1.6617498876	 0.135121
H	 0.5633147932	 2.579057244	-1.8032841064	 0.157205
85.7451	141.0085	211.4392	291.1353	474.3351	637.8159	676.8534	729.6964	832.3405	893.7623	952.5527	998.4414	1059.0971	1092.4376	1125.5272	1161.6521	1167.5011	1318.0107	1342.7001	1419.0355	1513.7586	1824.1087	1941.9287	2923.7722	3088.6347	3096.454	3165.8829
O=CC1COC1=O	O=C[C@H]1COC1=O	
InChI=1S/C4H4O3/c5-1-3-2-7-4(3)6/h1,3H,2H2	InChI=1S/C4H4O3/c5-1-3-2-7-4(3)6/h1,3H,2H2/t3-/m0/s1
