11
gdb 3811	8.14091	2.10921	1.69315	3.2877	48.38	-0.2703	-0.0391	0.2312	679.9443	0.078682	-376.51988	-376.51396	-376.513015	-376.549841	20.515	
C	-0.0330880799	 1.4136031574	 0.0089450639	-0.248227
O	 0.004120952	-0.0200731103	 0.0028840437	-0.255146
C	-1.178339836	-0.6256919024	 0.0098080054	 0.416674
N	-2.3413081721	-0.0281105602	 0.0215188437	-0.183799
O	-3.2637630416	-1.0528476319	 0.0246952994	-0.165035
N	-2.6552381273	-2.2740779695	 0.0147772264	-0.049869
C	-1.3762198933	-2.0393969368	 0.0055323931	-0.112825
H	 1.0076341926	 1.7361036604	 0.0016736862	 0.143279
H	-0.5566969963	 1.7865413917	-0.876178653	 0.14953
H	-0.5420141182	 1.7793838898	 0.9055491256	 0.149518
H	-0.64653645	-2.8329175983	-0.0035699469	 0.155901
120.1653	175.3929	232.8566	361.7534	480.7265	624.4208	707.9099	726.3539	880.2365	906.8419	919.544	1015.9104	1042.4072	1072.563	1179.3897	1209.0037	1233.5102	1441.7209	1459.2091	1481.5456	1497.8203	1527.3964	1638.6216	3043.5142	3117.0153	3162.8084	3278.8448
COC1=NON=C1	COc1nonc1	
InChI=1S/C3H4N2O2/c1-6-3-2-4-7-5-3/h2H,1H3	InChI=1S/C3H4N2O2/c1-6-3-2-4-7-5-3/h2H,1H3
