11
gdb 1011	8.97887	1.99206	1.63035	4.4099	60.82	-0.2336	-0.0234	0.2101	691.8345	0.081553	-302.353948	-302.348406	-302.347462	-302.383224	20.457	
N	 0.1245467759	-1.138520139	-0.0047980202	-0.348318
C	 0.0256331132	 0.0169244663	 0.0026570573	 0.204173
C	-0.0754611725	 1.4238371425	 0.0115951193	 0.214133
C	-1.186905998	 2.2523461666	 0.0307898584	-0.219543
C	-0.7187235908	 3.5849619742	 0.03182263	-0.129606
C	 0.6615759104	 3.5395308065	 0.0132221771	-0.080111
N	 1.0434952739	 2.23257422	 0.0009861931	-0.294502
H	-2.2111754364	 1.9155723826	 0.0425695539	 0.12308
H	-1.3205423806	 4.4797918074	 0.0446835118	 0.113411
H	 1.3941895541	 4.3304993963	 0.0077688329	 0.136247
H	 1.9903932407	 1.8936417164	-0.0135217737	 0.281035
167.9016	174.7998	493.2355	523.3492	564.642	577.4402	625.8258	677.2003	749.1813	825.4095	882.0813	896.4785	973.2491	1063.7302	1118.9746	1148.1983	1279.4269	1283.5078	1437.117	1450.4171	1479.044	1591.7122	2335.0087	3254.8194	3268.2831	3278.5535	3677.834
N#CC1=CC=CN1	N#Cc1ccc[nH]1	
InChI=1S/C5H4N2/c6-4-5-2-1-3-7-5/h1-3,7H	InChI=1S/C5H4N2/c6-4-5-2-1-3-7-5/h1-3,7H
