15
gdb 833	7.14925	1.9371	1.55351	0.6525	64.17	-0.2072	0.0287	0.2359	801.4743	0.124978	-308.562031	-308.554959	-308.554015	-308.592994	25.447	
C	 0.0770709474	 1.4946931545	-0.0258875649	-0.488078
C	-0.0741614325	 0.0162467584	 0.0116022017	 0.381077
C	-1.1305082317	-0.8228209872	-0.1602017119	-0.373764
C	-0.6361759074	-2.1658747297	-0.0003171417	 0.268526
C	-1.4151890472	-3.4405035221	-0.0966674678	-0.50036
C	 0.6901443273	-2.0256178871	 0.2572285276	-0.116158
O	 1.0509565331	-0.7101376723	 0.2687565356	-0.181693
H	 0.7875840042	 1.8074065873	-0.7996847193	 0.136748
H	-0.8873478059	 1.9608480603	-0.2392318386	 0.133563
H	 0.4432270157	 1.8864959531	 0.930034906	 0.136751
H	-2.1467131439	-0.5283263708	-0.3761092174	 0.099617
H	-1.8793975018	-3.5550803926	-1.0830176121	 0.127933
H	-0.7732338712	-4.3098534942	 0.0713372822	 0.122929
H	-2.2231844896	-3.4753024618	 0.6432178403	 0.127941
H	 1.4828227236	-2.7310386158	 0.4472450502	 0.124966
113.9378	130.1786	181.5092	252.6798	319.7416	382.7304	581.6977	622.2703	647.1566	726.3332	733.6365	806.7533	942.4558	984.9275	1008.651	1023.9405	1063.6579	1065.3278	1161.2428	1170.6973	1241.613	1300.2374	1396.4058	1414.9153	1421.0868	1471.9571	1482.7182	1488.9436	1499.6426	1592.737	1665.1117	3026.9234	3029.7145	3076.5159	3079.1629	3107.9321	3128.7045	3244.7437	3270.4959
CC1=CC(C)=CO1	Cc1cc(C)co1	
InChI=1S/C6H8O/c1-5-3-6(2)7-4-5/h3-4H,1-2H3	InChI=1S/C6H8O/c1-5-3-6(2)7-4-5/h3-4H,1-2H3
