14
gdb 702	10.07023	2.28283	2.06299	1.8416	53.86	-0.2596	0.0938	0.3534	624.9793	0.119787	-270.392715	-270.386836	-270.385891	-270.422223	21.36	
C	 0.0095534231	 1.542183784	 0.000480104	-0.270276
C	 1.3007604382	 0.7684542313	 0.0079330811	-0.264804
C	-0.0171070792	 0.0318612513	 0.0414328439	 0.002434
C	-0.4476396529	-0.6587140676	 1.288726201	 0.098433
C	-1.6020707874	-1.5649840507	 1.3321196256	-0.187644
O	-0.2680033136	-2.0779948913	 1.3445964844	-0.239715
H	-0.2668336868	 2.0774688331	 0.9032274442	 0.113984
H	-0.3000458831	 2.0322572507	-0.9154915709	 0.116426
H	 1.8852463321	 0.724032331	-0.9038998683	 0.117271
H	 1.8945729282	 0.7798346063	 0.9161011525	 0.117037
H	-0.3123254801	-0.4794383544	-0.8700562268	 0.088662
H	-0.1759451342	-0.1434220776	 2.2134189674	 0.085224
H	-2.1636045977	-1.6910785396	 2.257211085	 0.112124
H	-2.1670186164	-1.7552079265	 0.4198936469	 0.110843
87.7375	213.122	257.1948	388.942	488.5903	750.5911	804.9489	822.5337	854.3849	904.9852	924.8659	984.125	985.8303	1063.0893	1078.7784	1099.3612	1128.5592	1153.3904	1169.3457	1197.9721	1216.5429	1225.1751	1294.7933	1330.3862	1466.923	1470.4322	1506.6506	1533.7125	3075.4049	3080.0803	3132.1131	3136.4019	3153.7445	3162.8173	3210.8796	3226.0146
C1CC1C1CO1	C1CC1[C@H]1CO1	
InChI=1S/C5H8O/c1-2-4(1)5-3-6-5/h4-5H,1-3H2	InChI=1S/C5H8O/c1-2-4(1)5-3-6-5/h4-5H,1-3H2/t5-/m1/s1
