17
gdb 2222	3.63591	2.79649	2.16135	1.5474	64.28	-0.2277	0.0832	0.3109	705.2911	0.147728	-309.684108	-309.676964	-309.676019	-309.714703	26.959	
C	 0.0047099222	 1.5774322877	 0.0574713289	-0.420645
C	 0.0626752192	 0.0662611449	 0.0411672212	-0.057183
C	 1.3065199346	-0.7533864556	-0.2813072002	-0.199598
C	 2.5217238606	-0.1265234014	 0.3856850322	-0.094471
O	 1.8412038223	-0.066852122	 1.6670198931	-0.318927
C	 0.7072815464	-0.7626246366	 1.115634587	 0.449431
C	 0.0622992095	-1.7968913984	 1.9789668457	-0.485708
H	 0.829014332	 1.9919922311	 0.6425379135	 0.135867
H	 0.0519688691	 1.9928492287	-0.9549892059	 0.11299
H	-0.9282948	 1.9219656522	 0.516146689	 0.11542
H	-0.8266822971	-0.417187085	-0.3606338616	 0.083502
H	 1.3287539227	-1.5193929023	-1.0456497504	 0.092032
H	 3.3847376163	-0.7998032763	 0.4425397209	 0.10664
H	 2.8506562624	 0.861146213	 0.0407759609	 0.101437
H	-0.3857542975	-1.3316452398	 2.8646718127	 0.131246
H	-0.7318638354	-2.312506121	 1.4313173908	 0.121903
H	 0.7925285127	-2.5376996394	 2.3197590322	 0.126063
172.4951	194.0256	205.671	256.6316	260.4364	326.4172	482.0991	554.9975	658.8491	741.6882	764.0715	881.4848	911.5468	938.3172	971.844	985.7145	999.936	1045.8476	1097.2294	1117.6556	1129.7333	1151.0932	1173.7275	1203.3734	1269.0399	1326.9909	1342.2949	1407.2435	1408.6293	1472.3301	1475.9022	1492.987	1497.4458	1510.3331	1522.4564	3020.9115	3031.0302	3034.9961	3065.9182	3091.2667	3093.8402	3114.0541	3117.9261	3132.306	3192.5237
CC1C2COC12C	C[C@H]1[C@H]2CO[C@@]12C	
InChI=1S/C6H10O/c1-4-5-3-7-6(4,5)2/h4-5H,3H2,1-2H3	InChI=1S/C6H10O/c1-4-5-3-7-6(4,5)2/h4-5H,3H2,1-2H3/t4-,5+,6-/m0/s1
