16
gdb 2066	4.58056	2.56496	1.77558	3.2084	62.03	-0.2539	0.0233	0.2772	719.928	0.139522	-325.801905	-325.795581	-325.794637	-325.832153	23.991	
N	-0.0719840337	 1.3238212912	-0.1607386712	-0.499349
C	-0.0217635253	 0.0760005238	 0.0475299934	 0.380496
C	-1.2785080179	-0.7638986924	 0.0939243191	-0.256832
C	-1.1934378588	-1.9276338827	 1.0892196663	-0.213329
C	 0.1077217935	-2.6958310495	 0.8467713088	-0.206764
C	 1.286759645	-1.7404149202	 0.9713428876	-0.065199
O	 1.1756099799	-0.5842480488	 0.125955199	-0.254755
H	 0.8767216735	 1.7045440267	-0.1970021783	 0.215872
H	-2.1187083901	-0.0981197529	 0.2961372823	 0.130409
H	-1.4267529029	-1.1729328833	-0.9152064934	 0.124288
H	-1.2070328019	-1.5433409624	 2.1173992925	 0.106486
H	-2.0655885001	-2.5797180535	 0.9822100501	 0.103358
H	 0.2353596906	-3.5115474698	 1.5666843376	 0.103928
H	 0.0988105552	-3.1418390311	-0.1554853273	 0.108555
H	 1.385801387	-1.4007991371	 2.0128018091	 0.105713
H	 2.2279044659	-2.2147154879	 0.6822637945	 0.117121
100.6682	170.7198	320.8245	409.5616	440.4681	481.6114	548.4239	657.7642	770.7207	833.6947	877.1828	908.1403	931.1188	937.0484	994.5593	1060.675	1068.0148	1117.7645	1128.0707	1197.0121	1219.6376	1279.0558	1299.5995	1314.5291	1357.9496	1377.3047	1382.0121	1430.3034	1468.6196	1482.918	1497.514	1513.9757	1747.9696	3000.992	3018.6125	3028.0663	3033.3719	3078.3588	3083.6233	3097.1917	3123.0799	3454.3359
N=C1CCCCO1	[NH][C]1CCCCO1	
InChI=1S/C5H9NO/c6-5-3-1-2-4-7-5/h6H,1-4H2	InChI=1S/C5H9NO/c6-5-3-1-2-4-7-5/h6H,1-4H2
