13
gdb 871	6.9795	2.09462	1.62747	2.6666	56.19	-0.1933	0.0472	0.2404	727.3056	0.102709	-340.676441	-340.669701	-340.668757	-340.70692	24.382	
C	-0.0597450133	 1.4793802906	 0.0341708241	-0.496149
C	-0.0084502501	-0.0093807195	-0.0291761797	 0.343267
N	-0.0516329568	-0.7437560452	-1.1126622622	-0.283633
C	 0.0256035059	-2.0629947737	-0.6975558253	-0.230977
C	 0.1158425828	-2.1065580496	 0.6658373188	 0.353412
O	 0.213347813	-3.0858653742	 1.5982170218	-0.436548
N	 0.0941891918	-0.8035206425	 1.0940716741	-0.331445
H	 0.8432090774	 1.9046342031	 0.4888900328	 0.127071
H	-0.1450352708	 1.8630615016	-0.9833484051	 0.156234
H	-0.9199997934	 1.8385210225	 0.6119639414	 0.126883
H	 0.011238784	-2.8851155827	-1.3962250642	 0.095225
H	 0.2171217793	-3.9348270019	 1.1454650518	 0.310604
H	 0.14549299	-0.5107378187	 2.0554891717	 0.266057
105.9864	198.4464	235.0805	284.9695	350.6385	448.0798	482.9964	626.9765	667.9141	690.5263	731.8524	767.6617	984.1217	996.4782	1061.1951	1061.7978	1149.5263	1177.8749	1244.2372	1286.6538	1407.9534	1428.9454	1481.1188	1490.6048	1508.5994	1578.4392	1642.2237	3023.1622	3069.3966	3146.1564	3246.3797	3663.3544	3844.6453
CC1=NC=C(O)N1	Cc1ncc(O)[nH]1	
InChI=1S/C4H6N2O/c1-3-5-2-4(7)6-3/h2,7H,1H3,(H,5,6)	InChI=1S/C4H6N2O/c1-3-5-2-4(7)6-3/h2,7H,1H3,(H,5,6)
