12
gdb 3431	5.06575	2.99991	2.14371	5.1179	49.93	-0.2532	-0.0006	0.2526	588.9499	0.092355	-360.521191	-360.515868	-360.514924	-360.550287	19.964	
O	 0.0225459303	 0.014744516	 0.205978553	-0.343495
C	 0.0310960541	 1.1925241931	 0.0013325515	 0.497275
O	-1.109863568	 1.9185085343	-0.1861312232	-0.2302
C	-0.8345154999	 3.2597286583	-0.6280371627	-0.07517
C	 0.6668978989	 3.440066804	-0.5093530878	-0.058235
N	 1.1172955217	 3.22614489	 0.8718472971	-0.323783
C	 1.2088195982	 2.1191003087	-0.1218117107	-0.202787
H	-1.1736182119	 3.3604191712	-1.6647278362	 0.121405
H	-1.3935236823	 3.9500622808	 0.0092327224	 0.134338
H	 1.1913875163	 4.1250368661	-1.1650808225	 0.112345
H	 2.0496992452	 3.6191294716	 0.9865737313	 0.244961
H	 2.1694970774	 1.7202954859	-0.4187846622	 0.123346
172.2156	251.508	399.0475	466.4834	625.2324	713.8459	786.5251	827.0537	842.7003	871.6787	901.4129	958.5766	1018.1015	1050.3638	1082.4375	1117.1669	1162.0447	1187.6277	1234.4222	1261.4892	1357.8389	1398.6791	1413.5977	1504.6975	1889.4049	3047.8717	3103.3356	3186.5075	3215.0169	3492.1007
O=C1OCC2NC12	O=C1OC[C@H]2N[C@@H]12	
InChI=1S/C4H5NO2/c6-4-3-2(5-3)1-7-4/h2-3,5H,1H2	InChI=1S/C4H5NO2/c6-4-3-2(5-3)1-7-4/h2-3,5H,1H2/t2-,3-/m1/s1
