14
gdb 2705	7.22258	1.14613	1.03647	3.8926	55.33	-0.2773	0.0018	0.2792	1065.4642	0.112302	-361.702346	-361.694481	-361.693536	-361.735305	26.286	
O	-0.0097221152	 1.4192325219	-0.0519082321	-0.416122
C	 0.0064531686	 0.0085326129	-0.0128678154	-0.0628
C	-1.3995639591	-0.5684315657	 0.0205861552	-0.070976
O	-2.0355879794	-0.156576195	-1.1844671422	-0.250643
C	-3.395973607	-0.5041720544	-1.2350171684	-0.180701
C	-3.9719548495	-0.0144579568	-2.4911148245	 0.263139
N	-4.4501828316	 0.3617035171	-3.4720541035	-0.287567
H	-0.5489576871	 1.6646586288	-0.8124579841	 0.293872
H	 0.5470221128	-0.4180261109	-0.8722056762	 0.103089
H	 0.5389336359	-0.2836440903	 0.8979072156	 0.11628
H	-1.3750232067	-1.6676205059	 0.0897925033	 0.09805
H	-1.948374799	-0.174110015	 0.8896839452	 0.10593
H	-3.5371315654	-1.5960661661	-1.1856106728	 0.143573
H	-3.9581913172	-0.0654561406	-0.3947188199	 0.144875
59.5354	89.9396	125.1087	180.7523	287.7989	347.3489	384.9278	414.9108	505.1895	577.2258	872.3403	901.2177	958.2254	1032.3178	1052.3407	1087.654	1135.6492	1155.327	1237.5441	1252.722	1268.7379	1376.9842	1392.6986	1428.5443	1442.7555	1490.1373	1496.3694	1514.0823	2374.9603	2972.0788	2979.5125	2987.6624	3001.0028	3022.8042	3084.6617	3803.7976
OCCOCC#N	OCCOCC#N	
InChI=1S/C4H7NO2/c5-1-3-7-4-2-6/h6H,2-4H2	InChI=1S/C4H7NO2/c5-1-3-7-4-2-6/h6H,2-4H2
