9
gdb 3936	6.41034	2.89346	1.9936	4.2366	46.93	-0.2669	-0.0921	0.1749	562.4829	0.055581	-371.504707	-371.499605	-371.498661	-371.533604	18.347	
O	 0.108905258	 1.3400495439	-0.0986579032	-0.383793
C	 0.0712427769	 0.0108943093	-0.062063041	 0.461505
C	-0.0160499885	-0.7366820894	-1.2441877587	-0.02096
N	-0.0513284162	-2.0491408249	-1.1712998485	-0.152023
N	-0.0027924737	-2.6386308701	 0.0340655108	-0.063141
N	 0.0784305641	-1.9331100604	 1.1294084318	-0.054819
N	 0.1171236246	-0.6008691668	 1.1076470865	-0.264634
H	 0.1685861882	 1.6522935162	 0.8187292919	 0.318843
H	-0.0560739734	-0.2733529977	-2.2252346696	 0.159023
163.254	353.324	394.493	521.8388	586.5128	613.5947	676.733	829.0324	862.6084	954.1089	970.9977	1067.9393	1094.2478	1172.9804	1267.9289	1346.7039	1442.8055	1558.1579	1613.7073	3185.299	3720.8838
OC1=CN=NN=N1	Oc1cnnnn1	
InChI=1S/C2H2N4O/c7-2-1-3-5-6-4-2/h1H,(H,4,5,7)	InChI=1S/C2H2N4O/c7-2-1-3-5-6-4-2/h1H,(H,4,5,7)
