15
gdb 3345	4.15097	3.24882	2.19755	1.1028	56.06	-0.2517	0.0816	0.3333	621.6934	0.127246	-345.63757	-345.631836	-345.630892	-345.666945	22.179	
C	-0.0226683929	 1.4321362824	 0.0216619827	-0.08229
C	 1.4329614556	 1.9115494536	 0.0096223191	-0.236928
C	 2.2123185888	 1.2550538907	 1.1265085093	 0.064415
O	 1.5973525181	 1.2808547459	 2.4181270768	-0.257939
C	 1.6852036287	 0.0225798472	 1.732060508	 0.027643
C	 0.3761081031	-0.5610678481	 1.2274198674	-0.098816
O	-0.0826037802	 0.014831294	 0.0179760974	-0.249823
H	-0.5455184268	 1.8398639109	 0.8994174161	 0.105348
H	-0.5474444067	 1.764077406	-0.877951348	 0.108124
H	 1.9007826003	 1.6461563043	-0.9460284369	 0.111056
H	 1.4764217232	 3.0031457399	 0.1070697888	 0.107727
H	 3.2886151184	 1.4289423193	 1.1376390911	 0.090679
H	 2.373704525	-0.6838801467	 2.1954222724	 0.095876
H	 0.5042039428	-1.6286391933	 1.0219943504	 0.111353
H	-0.3826410773	-0.4558181161	 2.0209262453	 0.103573
154.6219	290.1119	360.549	380.9178	465.4396	570.2782	695.2566	790.5832	810.9197	865.8696	912.9366	935.8438	975.822	1029.5075	1051.0044	1072.2538	1101.5018	1147.5677	1174.4028	1247.5196	1266.9072	1286.0919	1323.2473	1360.1486	1372.9855	1392.3842	1421.7946	1465.1773	1477.7274	1484.6448	1501.1816	2969.2851	3002.1008	3031.4073	3073.7852	3076.1319	3095.7074	3103.5372	3117.1837
C1CC2OC2CO1	C1C[C@H]2O[C@H]2CO1	
InChI=1S/C5H8O2/c1-2-6-3-5-4(1)7-5/h4-5H,1-3H2	InChI=1S/C5H8O2/c1-2-6-3-5-4(1)7-5/h4-5H,1-3H2/t4-,5+/m1/s1
