13
gdb 3612	4.87503	3.96509	3.04428	1.5269	56.67	-0.2255	0.0005	0.226	503.2792	0.103596	-307.265383	-307.260724	-307.25978	-307.293386	19.535	
O	 0.0180841499	 1.4187119647	 0.2131734119	-0.29305
C	 1.3890410378	 1.4512997252	-0.0883666871	 0.104928
C	 2.1968229049	 0.3155657829	 0.6615877866	-0.132707
C	 1.4620317739	-0.3777959571	 1.7440501796	-0.055641
C	 0.2196239337	-0.6742324873	 1.3318832211	-0.101182
C	 0.0334812604	-0.0596180537	-0.0295492759	 0.043631
C	 1.4615724221	 0.076026292	-0.6390076925	-0.156749
H	 1.8327191891	 2.4043226367	-0.3487812334	 0.112484
H	 3.2747640136	 0.4216808394	 0.6582182412	 0.088511
H	 1.8586210011	-0.5233864489	 2.7413446338	 0.103269
H	-0.5848613959	-1.0849600659	 1.9269902589	 0.102516
H	-0.8160111752	-0.3512722702	-0.6439819676	 0.084305
H	 1.8654968546	-0.3503783078	-1.5480425866	 0.099684
409.9563	414.1444	603.5638	665.0511	701.6862	752.2995	791.5318	802.3948	815.9174	836.6346	879.0048	924.2782	934.5418	977.4618	1013.3654	1035.9399	1054.7348	1077.8668	1113.7729	1124.8376	1212.6651	1230.343	1268.6937	1315.8057	1362.3782	1376.653	1623.2057	3138.4791	3186.9932	3189.5062	3201.7952	3206.4875	3231.2762
O1C2C3C=CC1C23	O1[C@H]2[C@H]3C=C[C@@H]1[C@@H]23	
InChI=1S/C6H6O/c1-2-4-5-3(1)6(5)7-4/h1-6H	InChI=1S/C6H6O/c1-2-4-5-3(1)6(5)7-4/h1-6H/t3-,4+,5-,6-/m0/s1
