15
gdb 2626	12.47598	0.88669	0.85681	2.247	64.49	-0.2532	-0.0259	0.2274	1259.0437	0.122181	-308.496367	-308.488128	-308.487184	-308.52977	27.936	
O	-0.6642912043	 0.8507282364	 0.8142494962	-0.234115
C	 0.0309017046	 1.0345103933	-0.1505638722	 0.157776
C	 1.3170036846	 1.8300298484	-0.1560552589	-0.274945
C	 1.2838229686	 2.9614697605	-1.1960936031	-0.186565
C	 2.6328836517	 3.7024169801	-1.2928368524	-0.350889
C	 2.614628753	 4.7793496631	-2.2745953555	 0.288112
C	 2.571022553	 5.6606765509	-3.090553888	-0.427305
H	-0.2475541386	 0.6125836401	-1.1456346675	 0.072501
H	 1.4959615795	 2.2115047344	 0.8536625396	 0.124461
H	 2.1319465558	 1.1345634661	-0.4072401817	 0.119572
H	 1.0283764051	 2.5568227488	-2.182297921	 0.118308
H	 0.4977672249	 3.6797871294	-0.9401461521	 0.12775
H	 2.8979726928	 4.107924577	-0.307814985	 0.136059
H	 3.424023487	 2.9850311565	-1.5480816261	 0.131814
H	 2.5449448222	 6.442883265	-3.8080784723	 0.197466
53.029	88.4564	99.9811	133.2517	257.5372	338.5155	348.7553	482.3375	545.2602	621.3758	643.5978	743.1473	806.1735	905.4141	947.2456	995.424	1040.7441	1092.6705	1116.2635	1185.3939	1250.8649	1287.6883	1324.7698	1335.8582	1384.1867	1429.8476	1464.414	1474.135	1501.6741	1838.3896	2240.4548	2850.4365	3007.5397	3017.1881	3041.9969	3047.232	3082.0868	3101.283	3506.6408
O=CCCCC#C	O=CCCCC#C	
InChI=1S/C6H8O/c1-2-3-4-5-6-7/h1,6H,3-5H2	InChI=1S/C6H8O/c1-2-3-4-5-6-7/h1,6H,3-5H2
