14
gdb 3745	6.69705	2.18546	1.66877	1.7751	60.9	-0.195	0.0352	0.2302	730.7315	0.1156	-320.777849	-320.771048	-320.770104	-320.808741	24.57	
C	-0.0147146144	 1.3811797242	 0.1120074748	-0.313074
N	-0.0001740666	-0.0556585498	-0.0138827023	 0.063016
C	-0.1196375263	-0.8018908408	-1.1336541333	-0.011508
C	-0.0417019583	-2.1264692023	-0.7563460263	-0.307485
C	 0.1259377668	-2.0756360934	 0.6487494071	 0.381741
N	 0.327372223	-3.147361122	 1.5198939801	-0.587981
N	 0.143919416	-0.822474597	 1.0985195887	-0.352917
H	 0.9263681764	 1.7380700188	 0.5414720261	 0.144176
H	-0.146520591	 1.8214661698	-0.878110061	 0.133124
H	-0.8364652649	 1.7017142053	 0.7597523719	 0.142383
H	-0.2452000146	-0.3437573709	-2.1026899316	 0.123153
H	-0.0846274952	-2.9945713474	-1.3935048614	 0.094397
H	-0.2454933431	-3.9512628347	 1.3017359709	 0.243189
H	 0.1935536221	-2.8695635996	 2.4838790264	 0.247786
59.8764	174.8662	252.8192	298.8722	325.1456	452.2133	609.2877	638.6989	681.8398	735.2488	743.7595	782.1569	814.3826	1008.9667	1016.5856	1064.5751	1080.7984	1145.7382	1153.0484	1265.8746	1330.3099	1416.1197	1457.3097	1471.0996	1474.4812	1523.6096	1540.8522	1593.8984	1647.803	3040.0191	3100.1507	3139.5259	3249.1126	3271.0152	3543.1931	3639.0764
CN1C=CC(N)=N1	Cn1ccc(N)n1	
InChI=1S/C4H7N3/c1-7-3-2-4(5)6-7/h2-3H,1H3,(H2,5,6)	InChI=1S/C4H7N3/c1-7-3-2-4(5)6-7/h2-3H,1H3,(H2,5,6)
