14
gdb 4678	5.84372	1.38539	1.12775	1.2162	77.65	-0.2078	-0.0163	0.1915	1015.6303	0.10631	-345.412792	-345.405354	-345.40441	-345.444426	27.506	
C	 0.1424825308	 1.4425726526	 0.0608083462	-0.5019
C	-0.0613720437	-0.0273401205	-0.0146793713	 0.344619
C	-1.1658690454	-0.8127543335	-0.1737729014	-0.239113
C	-0.7107371099	-2.1632916683	-0.1665930852	-0.281189
C	 0.6467117088	-2.1151647017	-0.0030202601	 0.207943
O	 1.0484858526	-0.804155581	 0.0905760239	-0.204394
C	 1.6302592987	-3.1143403001	 0.079504166	 0.248136
C	 2.4651516806	-3.9804664006	 0.1489113689	-0.42144
H	 0.8054254277	 1.7956188457	-0.7370687936	 0.143761
H	-0.816432324	 1.9558567691	-0.0364006229	 0.137226
H	 0.5952931178	 1.7348360817	 1.0149001322	 0.143754
H	-2.1814411903	-0.4655217374	-0.2827516571	 0.112312
H	-1.3002889596	-3.0603431226	-0.268142608	 0.117441
H	 3.2001780159	-4.7441135633	 0.2100012623	 0.192846
119.9155	144.9721	147.0435	254.2257	326.9032	450.1624	525.0533	540.496	562.1352	636.6056	683.0781	683.4009	688.3308	801.2886	846.622	960.0715	993.4167	1019.7457	1047.1469	1063.6585	1221.3157	1230.794	1259.3817	1386.6922	1415.2557	1471.9955	1489.7933	1557.8832	1632.6663	2228.5875	3032.5359	3084.0883	3131.971	3253.6442	3269.9221	3504.0911
CC1=CC=C(O1)C#C	Cc1ccc(o1)C#C	
InChI=1S/C7H6O/c1-3-7-5-4-6(2)8-7/h1,4-5H,2H3	InChI=1S/C7H6O/c1-3-7-5-4-6(2)8-7/h1,4-5H,2H3
