11
gdb 3846	5.68487	2.91759	1.92807	3.1934	56.93	-0.2433	-0.0784	0.1649	606.5501	0.079767	-339.414779	-339.409375	-339.408431	-339.444001	20.077	
N	-0.0466400947	 1.2652432811	 0.343761467	-0.521489
C	-0.057215853	 0.057673074	-0.0458629174	 0.408326
O	 1.1264695269	-0.5737816584	-0.4208699927	-0.286236
N	 1.1913278875	-1.8942734614	-0.8578922973	-0.052046
C	 0.0827612892	-2.5441124865	-0.9086829957	 0.029641
C	-1.2088312632	-2.0086882683	-0.5492195578	-0.11415
C	-1.2700663493	-0.7359138553	-0.128168085	-0.110689
H	 0.9016337014	 1.6440366809	 0.3298583436	 0.231124
H	 0.1895816772	-3.5673640865	-1.2554872716	 0.142416
H	-2.0876450014	-2.637916394	-0.6264254643	 0.129248
H	-2.1873142307	-0.2405440056	 0.1644057713	 0.143855
120.8616	309.9508	419.1881	512.7858	539.8154	607.2874	708.3337	786.2868	831.4506	869.896	911.3969	937.677	981.6953	1019.2806	1021.1038	1074.2539	1168.3919	1286.384	1357.5428	1420.422	1615.9323	1677.9009	1737.215	3185.6249	3203.8868	3227.2239	3481.8179
N=C1ON=CC=C1	[NH]C1=C[CH]C=NO1	
InChI=1S/C4H4N2O/c5-4-2-1-3-6-7-4/h1-3,5H	InChI=1S/C4H4N2O/c5-4-2-1-3-6-7-4/h1-3,5H
