13
gdb 977	3.72774	3.33162	1.77579	0.5059	55.7	-0.1802	0.0547	0.2349	667.2553	0.103194	-340.656656	-340.64971	-340.648766	-340.687313	25.446	
N	 0.2002459788	 1.4295203439	 0.0055584029	-0.615118
C	 0.0198494106	 0.0292006982	-0.0187708736	 0.167306
C	-1.0951043836	-0.7836102437	-0.0296724179	 0.272468
O	-2.3736970546	-0.2918484017	-0.0163258507	-0.45698
C	-0.6629264866	-2.1368802776	-0.0554996725	-0.283572
C	 0.7179741364	-2.1149261781	-0.0597078911	-0.078749
N	 1.1168450148	-0.8117830737	-0.0375744408	-0.244348
H	-0.2256732595	 1.8428256096	 0.8297807217	 0.243455
H	-0.2366471134	 1.8722266786	-0.7973470618	 0.243516
H	-2.982244351	-1.0355060569	-0.0302236515	 0.293903
H	-1.2864312296	-3.0187486303	-0.0692047575	 0.083903
H	 1.4316737467	-2.922169408	-0.0765755052	 0.115037
H	 2.0618992112	-0.4700009003	-0.034943692	 0.25918
97.5383	204.222	246.1381	262.5388	315.1551	463.8297	471.1391	632.8885	651.9622	668.5822	701.3362	749.0116	778.8782	830.9911	911.553	1075.1689	1090.6058	1148.9791	1219.6024	1270.888	1287.5954	1345.8458	1450.7529	1495.5196	1515.3805	1656.538	1679.7183	3233.7895	3269.8459	3489.7662	3546.5267	3685.6787	3848.9484
NC1=C(O)C=CN1	Nc1c(O)cc[nH]1	
InChI=1S/C4H6N2O/c5-4-3(7)1-2-6-4/h1-2,6-7H,5H2	InChI=1S/C4H6N2O/c5-4-3(7)1-2-6-4/h1-2,6-7H,5H2
