11
gdb 496	20.93178	1.40036	1.36378	2.4084	48.12	-0.274	-0.0464	0.2276	792.702	0.083388	-285.313674	-285.307112	-285.306168	-285.344659	21.004	
O	-0.5029923342	 0.6170984277	 0.7624199012	-0.220005
C	 0.0499830219	 1.0364922898	-0.2180751236	 0.156091
C	 1.3521764582	 1.813079983	-0.2058213344	-0.2702
C	 1.2403260393	 3.1092969467	-1.0386963586	-0.347528
C	 2.5211775514	 3.7994198961	-1.1627396545	 0.264882
N	 3.542041326	 4.3326732773	-1.253067109	-0.293501
H	-0.3724139993	 0.8652907751	-1.2366154249	 0.080388
H	 1.6353678292	 2.023755857	 0.827469088	 0.150067
H	 2.1257083237	 1.1719880486	-0.6487969808	 0.149875
H	 0.8687962112	 2.8830587878	-2.0454517901	 0.160627
H	 0.5169187625	 3.7933008011	-0.5812078334	 0.169303
64.8424	77.7174	159.7455	310.0807	391.4364	466.4804	561.3351	754.7166	847.0031	931.7489	1013.2644	1074.339	1095.5148	1201.932	1267.5736	1306.0726	1364.3644	1429.5429	1461.0115	1475.7956	1844.7426	2366.6336	2854.513	3034.4921	3042.7017	3080.4338	3124.9491
O=CCCC#N	O=CCCC#N	
InChI=1S/C4H5NO/c5-3-1-2-4-6/h4H,1-2H2	InChI=1S/C4H5NO/c5-3-1-2-4-6/h4H,1-2H2
