13
gdb 3442	4.56583	3.17644	2.26965	2.0982	53.15	-0.2539	-0.014	0.2399	586.5234	0.102843	-344.428649	-344.423034	-344.42209	-344.457855	21.81	
O	 0.0760350836	 1.3942188649	-0.1027603297	-0.432972
C	 0.0535794864	-0.0217089084	-0.0490267765	 0.086362
C	 0.7011305688	-0.5732092283	 1.2179485967	-0.118286
C	-0.1456763681	-1.3024967806	 1.9463551949	-0.082074
C	-1.486550673	-1.3479146867	 1.2796157832	 0.002686
O	-2.0918961586	-0.0320075423	 1.1435710131	-0.267291
C	-1.3711939829	-0.5864851637	 0.0340216807	-0.001767
H	-0.5191010569	 1.6866583318	 0.6006253004	 0.289725
H	 0.5661861754	-0.3652997009	-0.954598064	 0.094274
H	 1.713982544	-0.3018630447	 1.4924415553	 0.11205
H	 0.0610562921	-1.7681774531	 2.9022078461	 0.109289
H	-2.1907423188	-2.1597337288	 1.4292848192	 0.104615
H	-1.955697542	-0.7788509293	-0.8605674394	 0.103389
156.862	266.3733	422.4874	465.8488	504.352	584.9653	704.6555	752.2721	826.1495	833.5724	868.864	887.7291	950.6257	982.265	1000.7412	1051.4328	1078.1255	1109.92	1132.494	1250.3584	1267.6219	1296.6143	1299.1477	1367.0356	1417.3623	1432.8953	1664.2644	3052.279	3159.8418	3175.764	3195.567	3219.9179	3764.4066
OC1C=CC2OC12	O[C@H]1C=C[C@H]2O[C@@H]12	
InChI=1S/C5H6O2/c6-3-1-2-4-5(3)7-4/h1-6H	InChI=1S/C5H6O2/c6-3-1-2-4-5(3)7-4/h1-6H/t3-,4+,5-/m0/s1
