15
gdb 2851	5.87951	1.42621	1.24696	2.6127	59.3	-0.2483	-0.0195	0.2288	926.6322	0.123723	-345.64189	-345.634288	-345.633344	-345.674029	26.593	
O	-0.1159311553	 1.4152754689	-0.4432354926	-0.417355
C	 0.0322615512	 0.1023081339	 0.0772298607	-0.105025
C	-1.3381547264	-0.5289561914	 0.0717529485	 0.017481
C	-1.8553381958	-1.2652765417	-1.114125453	-0.290245
C	-1.551355932	-2.0411165935	 0.1643936348	-0.117096
C	-0.417192655	-2.991652333	 0.170200805	 0.162832
O	-0.3775809194	-3.9982584708	 0.8347256906	-0.269154
H	 0.7273914644	 1.8694949654	-0.3551821767	 0.289525
H	 0.7348882572	-0.4876465681	-0.5306519798	 0.088508
H	 0.4264343202	 0.1230417562	 1.1053753444	 0.098325
H	-2.0649502329	 0.0481147233	 0.636245801	 0.110374
H	-2.8963927649	-1.1640616845	-1.3968218707	 0.130802
H	-1.174555074	-1.4144505174	-1.9469903765	 0.126253
H	-2.3892408399	-2.3714579736	 0.7686616455	 0.109601
H	 0.4224234728	-2.7274604838	-0.5137840112	 0.065175
75.0142	104.1053	187.9133	240.632	272.744	313.2331	412.3358	433.4163	547.8883	806.6093	847.1582	879.531	910.4719	955.6858	1022.5999	1048.6908	1074.4545	1077.1046	1136.1357	1167.4117	1195.9027	1216.6741	1256.5253	1284.5261	1339.6448	1395.8062	1445.0711	1474.8696	1493.7481	1521.3653	1815.9559	2858.4638	2975.2406	3004.6778	3133.3661	3154.3109	3177.2276	3224.0988	3827.4059
OCC1CC1C=O	OC[C@H]1C[C@H]1C=O	
InChI=1S/C5H8O2/c6-2-4-1-5(4)3-7/h2,4-5,7H,1,3H2	InChI=1S/C5H8O2/c6-2-4-1-5(4)3-7/h2,4-5,7H,1,3H2/t4-,5+/m0/s1
