13
gdb 181	9.1832	2.53155	2.06117	0.8763	53.48	-0.2405	0.0074	0.2479	599.0421	0.107557	-286.438084	-286.4319	-286.430956	-286.468514	21.872	
O	-0.1500950642	 1.343869983	 0.1828051857	-0.396741
N	 0.0250254858	-0.0540392113	 0.1351900496	-0.223014
C	-1.0797910756	-0.6391533332	-0.0609615193	 0.425638
C	-2.521737295	-0.2118174699	-0.2541064766	-0.311704
C	-2.8939398193	-1.7235274569	-0.3896511698	-0.210163
C	-1.3923940981	-2.1177806633	-0.1858020823	-0.308699
H	 0.7491446719	 1.6541104472	 0.3336847662	 0.305431
H	-2.9541229025	 0.3115338616	 0.6039065554	 0.126924
H	-2.6928875386	 0.4037884545	-1.1422380996	 0.126924
H	-3.5647310398	-2.0939209851	 0.3872418393	 0.109662
H	-3.3029304218	-2.0014986738	-1.3623657141	 0.109663
H	-0.9196960771	-2.6145520587	-1.0380283744	 0.123039
H	-1.1814585356	-2.7069027742	 0.7113920799	 0.123039
32.5451	218.044	261.2181	359.6009	470.1144	524.0052	713.9571	738.3754	744.4995	867.1331	928.2007	951.4862	990.6395	1011.1657	1089.3761	1171.9133	1214.4127	1215.6724	1227.0897	1262.0773	1280.1465	1402.2016	1452.8733	1464.7265	1495.8764	1782.7307	3054.1272	3057.4616	3081.6789	3094.8743	3100.4451	3135.2785	3818.2453
ON=C1CCC1	ON=C1CCC1	
InChI=1S/C4H7NO/c6-5-4-2-1-3-4/h6H,1-3H2	InChI=1S/C4H7NO/c6-5-4-2-1-3-4/h6H,1-3H2
