10
gdb 3902	5.97775	2.99214	1.99403	3.9663	51.	-0.2629	-0.0908	0.1721	574.962	0.069624	-355.520098	-355.515019	-355.514075	-355.549098	18.41	
O	-0.0296817849	-0.0559937052	 0.0033379229	-0.360394
C	 0.0245069947	 1.1494282925	 0.0087948836	 0.465074
N	-1.1667004002	 1.9096064384	 0.0286539732	-0.248907
N	-1.2868589277	 3.2304788697	 0.0370269027	-0.127086
C	-0.1631578499	 3.8912265773	 0.0253438337	-0.022353
C	 1.0880627065	 3.1977040707	 0.0050178333	 0.02258
N	 1.1999491369	 1.9051702264	-0.0031028889	-0.291256
H	-2.0346585735	 1.3888418075	 0.0376218951	 0.287047
H	-0.2273159888	 4.9721329604	 0.0317358045	 0.139087
H	 2.011794987	 3.7777721624	-0.0044048799	 0.136208
122.3763	392.6518	481.6052	510.7321	589.3229	631.0772	746.6637	804.9588	838.5441	873.7772	1009.3135	1014.6492	1024.1408	1131.5516	1184.932	1391.3842	1401.2325	1434.9342	1568.8341	1651.1038	1830.1682	3124.9923	3215.8134	3586.6065
O=C1NN=CC=N1	O=c1[nH]nccn1	
InChI=1S/C3H3N3O/c7-3-4-1-2-5-6-3/h1-2H,(H,4,6,7)	InChI=1S/C3H3N3O/c7-3-4-1-2-5-6-3/h1-2H,(H,4,6,7)
