12
gdb 4317	4.17832	2.04972	1.37513	4.0153	61.44	-0.2344	-0.0466	0.1878	815.3772	0.085843	-410.888423	-410.881663	-410.880719	-410.919513	24.661	
N	 0.0164892428	 1.3117484474	 0.0079882514	-0.544109
C	-0.0345648205	-0.0317127796	 0.0013247737	 0.447358
N	-1.189333095	-0.6351936278	 0.0042103395	-0.335108
C	-1.2156751505	-1.9931379454	-0.0032526029	 0.427886
N	-2.2502983707	-2.7142580905	-0.0011755801	-0.532158
O	 0.0760548722	-2.66455847	-0.0138025956	-0.216473
C	 1.1686197899	-1.9176900497	-0.0156751139	 0.153908
N	 1.2255246194	-0.638315682	-0.0089996249	-0.334702
H	 0.9085485559	 1.7720947273	 0.0054198981	 0.277499
H	-0.8396534444	 1.8380685809	 0.015345587	 0.279146
H	-2.0018960055	-3.7012694892	-0.0078200636	 0.226296
H	 2.0777594565	-2.5159831515	-0.0238147186	 0.150456
110.1083	152.0502	190.0841	360.0775	416.112	506.9411	544.8069	595.0766	605.8724	690.3325	723.9794	794.2296	825.6649	854.378	953.3369	1004.8083	1010.4703	1152.7985	1224.9001	1305.7741	1394.0224	1454.0047	1578.8443	1639.8041	1713.2128	1788.78	3166.6085	3525.5087	3628.2	3769.752
NC1=NC(=N)OC=N1	N[C@H]1N=C([NH])OC=N1	
InChI=1S/C3H4N4O/c4-2-6-1-8-3(5)7-2/h1H,(H3,4,5,7)	InChI=1S/C3H5N4O/c4-2-6-1-8-3(5)7-2/h1-2,5H,4H2/t2-/m1/s1
