17
gdb 3102	3.94643	1.96812	1.69306	2.3714	59.94	-0.2337	0.0454	0.2792	814.7698	0.146941	-346.830674	-346.822573	-346.821629	-346.862915	29.493	
C	-0.3185623244	 1.3690387845	 0.0797788115	-0.375677
C	 0.2505471694	-0.0425706914	-0.1108392358	-0.196657
C	 0.8848349621	-0.6021873302	 1.1449471965	-0.083228
C	 0.0525738444	-1.2729942124	 2.2277880138	 0.019384
O	-1.3021494243	-1.5585152653	 1.9897618799	-0.427826
C	 0.9811465665	-2.0997491162	 1.3781776848	 0.090314
O	 0.4026247003	-2.9817414278	 0.4675188926	-0.430045
H	 0.4579431902	 2.0710450698	 0.40257048	 0.11827
H	-0.7497334855	 1.752341626	-0.8503346425	 0.116294
H	-1.1062993448	 1.3889915181	 0.8427717462	 0.096845
H	-0.5329317353	-0.7214108784	-0.4591367357	 0.102196
H	 1.003870901	-0.027066906	-0.9077658409	 0.105937
H	 1.7214529836	-0.0199496593	 1.5267079335	 0.082264
H	 0.2928356449	-1.0880551057	 3.2731333911	 0.089903
H	-1.7784896027	-0.7334929274	 1.8533030149	 0.298616
H	 1.8889701297	-2.4972556345	 1.8233628287	 0.097023
H	-0.545019665	-2.9819489536	 0.6614575514	 0.296386
65.1798	139.658	190.186	235.8066	273.3691	292.0632	304.0055	410.896	543.7236	606.4363	644.6011	754.0995	772.2551	801.1465	888.6412	987.135	995.1428	1044.2731	1060.6915	1113.4234	1128.2643	1166.3497	1177.0238	1235.5682	1282.2359	1286.5038	1334.9591	1344.0451	1393.2338	1400.0884	1412.0211	1453.1859	1484.6883	1495.7909	1504.9408	3023.5626	3037.4972	3075.7612	3094.1641	3104.7364	3111.9974	3125.6816	3146.8234	3741.9273	3815.9575
CCC1C(O)C1O	CC[C@H]1[C@@H](O)[C@H]1O	
InChI=1S/C5H10O2/c1-2-3-4(6)5(3)7/h3-7H,2H2,1H3	InChI=1S/C5H10O2/c1-2-3-4(6)5(3)7/h3-7H,2H2,1H3/t3-,4+,5-
