10
gdb 140	17.05252	3.4088	3.26202	1.2763	45.22	-0.2422	0.0322	0.2744	408.3613	0.079399	-210.001565	-209.996559	-209.995615	-210.029132	17.704	
C	 0.0163986674	-1.182506217	-0.0133462486	-0.46056
C	-0.001313556	 0.019905406	 0.0230742731	 0.323012
C	-0.0103387346	 1.4550744708	 0.0436857175	-0.150063
C	 0.5090564944	 2.1826577635	 1.2413358091	-0.225702
N	 1.2690319129	 2.2050593317	-0.0111356672	-0.306605
H	 0.0275219818	-2.2439325152	-0.0421683171	 0.202436
H	-0.8038095075	 1.9219335527	-0.5339540419	 0.120929
H	 0.0544212328	 3.1289072909	 1.520012586	 0.127673
H	 0.8716058706	 1.5813628686	 2.0695346973	 0.126595
H	 2.0384749081	 1.541570748	 0.0426971319	 0.242286
203.2035	215.8445	518.014	533.8878	598.3142	662.296	780.8052	820.2902	932.2798	966.5122	1017.8203	1113.7321	1141.1788	1193.1011	1253.9877	1297.6325	1388.3126	1505.1572	2235.8788	3116.4207	3142.2544	3207.6834	3502.9745	3504.4913
C#CC1CN1	C#C[C@H]1CN1	
InChI=1S/C4H5N/c1-2-4-3-5-4/h1,4-5H,3H2	InChI=1S/C4H5N/c1-2-4-3-5-4/h1,4-5H,3H2/t4-/m0/s1
