17
gdb 4109	3.32305	1.69838	1.24401	1.0914	67.32	-0.2458	0.003	0.2487	979.0962	0.141746	-400.96759	-400.959559	-400.958615	-401.00015	29.645	
C	 0.1128931312	 1.4504278724	-0.1570934531	-0.392465
C	-0.1149811486	-0.0395303912	 0.1116475488	 0.056041
O	 0.2836270911	-0.8547123621	-0.9921500478	-0.265704
C	 1.6103014597	-1.321644586	-0.7634045006	-0.093339
C	 1.7099218242	-1.5607028577	 0.7505938855	-0.323432
C	 0.7051851616	-0.5682036476	 1.2777155822	 0.374107
N	 0.5063151339	-0.1752528146	 2.4683841039	-0.223757
O	 1.3877363381	-0.8015094289	 3.3675432588	-0.391819
H	 1.1723719013	 1.6644800696	-0.3288445989	 0.115661
H	-0.452103865	 1.7615506744	-1.0399705795	 0.123101
H	-0.2174537898	 2.0369603284	 0.7048880603	 0.13224
H	-1.1836391054	-0.220750348	 0.2709012354	 0.103176
H	 1.7505831862	-2.2237650071	-1.3635549033	 0.113824
H	 2.3520629281	-0.5757008394	-1.0883459674	 0.096999
H	 1.4010621611	-2.5770997198	 1.0211621713	 0.135375
H	 2.7054373381	-1.3989922206	 1.1703631438	 0.133204
H	 1.1283679442	-0.4139841617	 4.2103526605	 0.306789
64.538	171.236	186.1031	217.7523	250.6054	328.5953	385.3229	456.0708	504.5061	529.0693	654.6228	703.3567	798.2571	854.379	877.769	952.2636	988.5039	1000.3106	1031.8176	1083.7819	1105.5284	1132.9926	1193.5184	1226.7076	1244.5488	1285.4344	1319.0646	1358.8932	1390.4132	1395.0222	1408.291	1465.5085	1487.9002	1491.9901	1522.854	1765.0109	2984.1436	3041.1108	3046.1893	3048.143	3097.1513	3109.8522	3116.7181	3125.7311	3817.5063
CC1OCCC1=NO	C[C@H]1OCCC1=NO	
InChI=1S/C5H9NO2/c1-4-5(6-7)2-3-8-4/h4,7H,2-3H2,1H3	InChI=1S/C5H9NO2/c1-4-5(6-7)2-3-8-4/h4,7H,2-3H2,1H3/t4-/m1/s1
