18
gdb 466	6.22174	2.91216	2.1948	0.0756	63.03	-0.3044	0.0828	0.3872	641.8924	0.168121	-235.723792	-235.71718	-235.716236	-235.754746	24.306	
C	-0.1755308865	 1.5268538723	 0.0059715322	-0.404971
C	 0.0799943588	 0.0217934279	 0.0295419369	 0.063584
C	 0.8661203393	-0.5178944452	-1.1787409951	-0.192073
C	 1.3392861109	-1.9237642611	-0.7455188505	-0.20241
C	 1.3806976872	-1.8924617518	 0.8134110196	-0.202411
C	 0.93104418	-0.4694489007	 1.2142542829	-0.192057
H	 0.7696117556	 2.0818915605	-0.0309215208	 0.109582
H	-0.7668386861	 1.8196128807	-0.8684258413	 0.109243
H	-0.718902865	 1.8554219192	 0.8985591386	 0.109241
H	-0.8885368067	-0.4994076265	 0.066403847	 0.065698
H	 0.2777353207	-0.5313108701	-2.1015102483	 0.087914
H	 1.7302452701	 0.135343976	-1.3599999146	 0.089942
H	 0.6340689004	-2.6866394347	-1.0904785194	 0.096268
H	 2.3094448587	-2.1786591279	-1.1810210246	 0.094185
H	 0.6946580793	-2.6393190066	 1.2255770554	 0.096267
H	 2.3725500345	-2.1318474186	 1.2068100456	 0.094162
H	 1.8033696281	 0.18922918	 1.3214574162	 0.089933
H	 0.3937756507	-0.4444102333	 2.16745945	 0.087904
28.1196	175.2283	231.3616	300.2922	423.3324	528.3962	627.9221	754.946	814.1349	851.7383	890.3914	915.1827	929.6034	978.7712	995.6959	1018.2379	1046.1292	1102.3832	1157.1843	1203.803	1214.4063	1247.2076	1264.0879	1301.4551	1320.7582	1330.5927	1337.078	1352.739	1389.752	1412.3672	1485.3265	1494.533	1494.6509	1496.7953	1501.467	1518.6275	2988.6491	3015.9808	3019.6647	3026.0079	3041.6892	3054.2654	3070.5801	3078.3371	3082.7221	3088.8853	3093.2532	3101.6896
CC1CCCC1	CC1CCCC1	
InChI=1S/C6H12/c1-6-4-2-3-5-6/h6H,2-5H2,1H3	InChI=1S/C6H12/c1-6-4-2-3-5-6/h6H,2-5H2,1H3
