11
gdb 4954	3.26963	2.61329	1.45242	4.9029	55.69	-0.2495	-0.0651	0.1844	763.889	0.072573	-434.560574	-434.554294	-434.55335	-434.591514	22.835	
N	-0.0267549393	 1.2085058908	 0.4388587065	-0.453731
C	 0.0074975566	 0.0208306256	 0.0205567159	 0.256987
O	 1.1729676882	-0.5770817687	-0.3906371349	-0.215743
C	 1.1341199213	-1.872143482	-0.8345637655	-0.030142
C	 0.0127451526	-2.576038269	-0.8838880873	-0.022901
O	-1.2015651651	-2.0648778936	-0.4937800555	-0.201557
C	-1.285403954	-0.7811648367	-0.0316849675	 0.384804
O	-2.3389607252	-0.3403817665	 0.3046662837	-0.269311
H	 0.9077912039	 1.6222488197	 0.4191188792	 0.241496
H	 2.1017001721	-2.245487793	-1.1334962925	 0.153888
H	-0.0512049712	-3.5968640566	-1.2282576621	 0.15621
69.5332	156.5748	361.2752	441.7564	493.9092	527.3562	533.3132	546.415	724.584	770.321	792.7725	861.725	918.938	935.9432	977.5402	1058.1037	1130.3026	1174.392	1272.1426	1350.1258	1398.8517	1733.6831	1750.0105	1879.6606	3250.3216	3270.5162	3475.8572
N=C1OC=COC1=O	[NH][C]1OC=COC1=O	
InChI=1S/C4H3NO3/c5-3-4(6)8-2-1-7-3/h1-2,5H	InChI=1S/C4H3NO3/c5-3-4(6)8-2-1-7-3/h1-2,5H
