6
gdb 486	0.	1.344106	1.344106	0.	55.28	-0.3277	-0.1164	0.2113	754.2424	0.027023	-261.802956	-261.79743	-261.796485	-261.828854	17.827	
C	 0.605438995	 0.	 0.	 0.099941
C	-0.605438995	 0.	 0.	 0.099941
C	-1.9675982265	 0.	 0.	 0.2011
C	 1.9675982265	 0.	 0.	 0.2011
N	-3.1294921384	 0.	 0.	-0.301041
N	 3.1294921384	 0.	 0.	-0.301041
115.1102	115.1102	285.1786	285.1786	537.6996	537.6996	605.6588	605.6588	620.0912	1192.961	2222.2025	2349.4349	2389.8014
N#CC#CC#N	C(#CC#N)C#N	
InChI=1S/C4N2/c5-3-1-2-4-6	InChI=1S/C4N2/c5-3-1-2-4-6
