12
gdb 3153	4.5324	2.76917	1.98829	2.9514	51.04	-0.2739	-0.0074	0.2665	631.1622	0.091204	-360.503577	-360.497732	-360.496788	-360.533302	21.158	
O	 0.0082510547	 0.089432874	-0.311591443	-0.338017
C	 0.0494231765	 1.2387729938	-0.0088627822	 0.420529
O	-0.9639556557	 2.0420339241	 0.4621402936	-0.251029
C	-0.1000413756	 3.2320861601	 0.4859973842	-0.140403
C	 1.0565498486	 2.3609534297	 0.0145886565	 0.136921
C	 2.4911327136	 2.2644429526	 0.3705785527	-0.287801
N	 2.071220805	 2.6650470235	-0.9782968197	-0.348595
H	-0.4479537421	 3.980932439	-0.2277755774	 0.139639
H	-0.0357831471	 3.6433630542	 1.4949581676	 0.13221
H	 2.9448594033	 3.0549331102	 0.9612491299	 0.137292
H	 2.897668504	 1.2688170005	 0.5268333106	 0.142898
H	 2.1567260949	 1.8872376384	-1.6302737827	 0.256354
160.7911	213.6132	231.0589	350.4991	507.4952	630.6653	740.215	781.2379	835.2371	879.8924	940.5775	960.3262	993.0691	1054.171	1086.082	1104.0991	1138.6853	1144.5484	1252.4909	1281.9853	1319.7685	1437.7334	1510.8152	1512.8824	1935.361	3077.5821	3113.6369	3142.4952	3205.8518	3491.037
O=C1OCC11CN1	O=C1OC[C@]21CN2	
InChI=1S/C4H5NO2/c6-3-4(1-5-4)2-7-3/h5H,1-2H2	InChI=1S/C4H5NO2/c6-3-4(1-5-4)2-7-3/h5H,1-2H2/t4-/m0/s1
