15
gdb 2078	4.74903	2.56399	1.7672	3.9574	57.81	-0.2288	0.0339	0.2627	700.0563	0.128749	-341.867094	-341.860853	-341.859909	-341.897222	23.479	
O	-0.0085548309	-0.0723878523	 0.0622253852	-0.375724
C	-0.0178548255	 1.1440762944	 0.0401562602	 0.410828
C	-1.327610861	 1.9306002514	 0.0418863815	-0.270627
N	-1.154799834	 3.3225252996	 0.447348054	-0.301682
C	-0.1072755324	 3.9690647263	-0.3315549818	-0.159242
C	 1.2227885834	 3.332904298	 0.0571580936	-0.128451
N	 1.1260728269	 1.8840160907	-0.0567594165	-0.309168
H	-1.7484641278	 1.8160160893	-0.9751990114	 0.108745
H	-2.0041787295	 1.4177706648	 0.7295786134	 0.134497
H	-2.0320135812	 3.8214624581	 0.3532154375	 0.226027
H	-0.2536365008	 3.8706998564	-1.4239521016	 0.087909
H	-0.0807279652	 5.0359384987	-0.0919888042	 0.107951
H	 2.0199223666	 3.6916022842	-0.6035249983	 0.107898
H	 1.4754105917	 3.6271518615	 1.0851902158	 0.115249
H	 1.9731183498	 1.335684269	-0.0120450173	 0.245792
109.3234	178.2868	342.0939	426.6258	456.1736	486.5082	531.6485	655.0024	669.6531	764.6295	829.9434	902.7014	978.1576	1003.4582	1039.8314	1108.5606	1124.3531	1165.3496	1206.3003	1254.9019	1284.3402	1323.3267	1347.4995	1396.4722	1417.1772	1472.746	1487.4768	1488.377	1501.073	1522.4375	1795.578	2923.2364	2928.7018	3007.2371	3061.7288	3084.8379	3101.1838	3532.6083	3604.8502
O=C1CNCCN1	O=C1CNCCN1	
InChI=1S/C4H8N2O/c7-4-3-5-1-2-6-4/h5H,1-3H2,(H,6,7)	InChI=1S/C4H8N2O/c7-4-3-5-1-2-6-4/h5H,1-3H2,(H,6,7)
