19
gdb 2034	4.21789	2.42461	2.15648	0.221	70.62	-0.2499	0.0907	0.3406	731.4611	0.171706	-273.762561	-273.755461	-273.754517	-273.792799	28.402	
C	-0.0825253537	 1.5685614453	 0.054704055	-0.44281
C	 0.0300741076	 0.0449343887	 0.0315125115	 0.344996
C	-1.3380934444	-0.5917955718	-0.2203021468	-0.436931
C	 1.1297774453	-0.5757616889	-0.9116077073	-0.283966
C	 1.7532525358	-1.2826660744	 0.2971853562	-0.029214
C	 2.1904831337	-0.2691855176	 1.3153487903	-0.294834
C	 0.7336565583	-0.6291305238	 1.2308630755	-0.063063
H	 0.8814345048	 2.0487237802	 0.2471057153	 0.110092
H	-0.4546064717	 1.9467313501	-0.9048498449	 0.10932
H	-0.7804237368	 1.8978602148	 0.8334745809	 0.109617
H	-1.749897462	-0.2717212876	-1.1842760182	 0.108434
H	-1.270695979	-1.6848461256	-0.226966005	 0.11126
H	-2.0532277812	-0.3061813972	 0.5603932394	 0.108051
H	 0.702640673	-1.2549625822	-1.6534935381	 0.096672
H	 1.7833001244	 0.136218537	-1.4281029386	 0.08798
H	 2.1286393433	-2.2987174664	 0.3054404173	 0.080344
H	 2.7103719947	-0.6696564476	 2.180251216	 0.107517
H	 2.5508475005	 0.707447078	 1.0007671409	 0.102354
H	 0.2093072476	-1.062267851	 2.0761755406	 0.07418
188.3973	225.5241	251.6409	274.1159	345.2598	373.2165	421.5214	478.6264	610.6181	746.1387	789.9559	832.6271	855.4024	920.0612	937.1433	958.8234	983.9152	989.396	1002.5851	1016.4716	1050.5903	1070.6834	1086.2989	1146.36	1187.0904	1208.6719	1236.5653	1251.2765	1280.0628	1310.2356	1362.3257	1402.2143	1422.2241	1480.4259	1483.8343	1487.9323	1498.9038	1506.7309	1508.6818	3018.373	3024.348	3037.4576	3081.5231	3086.7908	3092.8345	3098.6448	3101.3517	3109.3383	3160.3494	3179.9206	3196.5336
CC1(C)CC2CC12	CC1(C)C[C@H]2C[C@@H]12	
InChI=1S/C7H12/c1-7(2)4-5-3-6(5)7/h5-6H,3-4H2,1-2H3	InChI=1S/C7H12/c1-7(2)4-5-3-6(5)7/h5-6H,3-4H2,1-2H3/t5-,6-/m1/s1
