17
gdb 2268	3.73448	2.69226	2.09274	1.7765	63.93	-0.2273	0.0827	0.3101	713.9123	0.147355	-309.684472	-309.677318	-309.676374	-309.715074	27.155	
C	-0.0737492454	 1.5431293694	-0.0260307906	-0.40803
C	 0.101637614	 0.0402129912	 0.0376083252	 0.116286
O	 1.1666240431	-0.4652522882	-0.8244571418	-0.310253
C	 1.7110502057	-1.2072765592	 0.2688670861	 0.069749
C	 2.1956592484	-0.2813281821	 1.3413040967	-0.350561
C	 0.7220373386	-0.6462062117	 1.2639383166	 0.255346
C	-0.0537562614	-1.2632788879	 2.3898782896	-0.496335
H	 0.8295277463	 2.0679254403	 0.2956392465	 0.121157
H	-0.3031065382	 1.853738165	-1.0503823763	 0.128447
H	-0.9055172106	 1.8532008885	 0.6160259217	 0.116306
H	-0.8367290291	-0.4626757107	-0.2371104532	 0.075087
H	 2.0772216073	-2.2091815705	 0.074017089	 0.099377
H	 2.7212233081	-0.7532709523	 2.1667435445	 0.109266
H	 2.5621752108	 0.7047655105	 1.0702344626	 0.112381
H	-0.437560286	-0.4997271974	 3.077642733	 0.121639
H	-0.9100919712	-1.8371063134	 2.0173360607	 0.119169
H	 0.5730357398	-1.9430354516	 2.9759009098	 0.12097
175.1132	182.0763	207.2716	235.5572	307.7095	358.634	470.8212	523.421	627.7627	710.0469	810.1916	863.2497	889.1962	896.3444	971.1788	997.9467	1027.6152	1054.7682	1068.7609	1082.5492	1107.6881	1137.7377	1148.2942	1247.5138	1273.0731	1292.6142	1381.0853	1396.8572	1412.0072	1426.7621	1483.8167	1485.7688	1487.6644	1495.477	1499.3024	2999.1003	3020.0268	3037.3744	3077.3055	3096.6405	3104.7252	3112.9898	3121.3738	3173.64	3202.1968
CC1OC2CC12C	C[C@H]1O[C@H]2C[C@@]12C	
InChI=1S/C6H10O/c1-4-6(2)3-5(6)7-4/h4-5H,3H2,1-2H3	InChI=1S/C6H10O/c1-4-6(2)3-5(6)7-4/h4-5H,3H2,1-2H3/t4-,5+,6+/m1/s1
