9
gdb 783	9.81968	3.89319	2.78789	2.1239	39.16	-0.2453	0.025	0.2703	425.543	0.064546	-317.434422	-317.429848	-317.428904	-317.462134	16.463	
O	 0.1192475146	 1.3095160396	 0.1700598112	-0.41452
C	 0.0751460773	-0.016331051	 0.0126334745	 0.468359
N	 0.1107382224	-0.6922947002	-1.1134105291	-0.364653
C	 0.0345882987	-1.9853212888	-0.6696145565	 0.043822
N	-0.0441028992	-2.1397900847	 0.6360931385	-0.220024
N	-0.0165038297	-0.8415149983	 1.0702756864	-0.251671
H	 0.1834719778	 1.6928287042	-0.7141399263	 0.322778
H	 0.0380676418	-2.8316668515	-1.3398751301	 0.129744
H	-0.0621390437	-0.6207056492	 2.0503133614	 0.286167
313.992	415.3553	423.6285	493.4647	686.4085	728.96	748.6184	906.9518	975.2356	1057.9929	1101.4174	1169.6653	1232.2937	1297.6036	1346.0202	1465.4995	1585.524	1637.1939	3262.1976	3681.3189	3802.9322
OC1=NC=NN1	Oc1ncn[nH]1	
InChI=1S/C2H3N3O/c6-2-3-1-4-5-2/h1H,(H2,3,4,5,6)	InChI=1S/C2H3N3O/c6-2-3-1-4-5-2/h1H,(H2,3,4,5,6)
