13
gdb 1001	4.14183	3.3009	1.85838	3.2284	55.16	-0.1984	0.047	0.2454	648.2207	0.103022	-340.664901	-340.65818	-340.657236	-340.695735	23.654	
C	-0.0284723169	 1.455575722	 0.0288911911	-0.334744
N	-0.0164630285	 0.007595979	 0.0124700004	-0.041257
C	-0.1590177302	-0.8305336436	-1.068919217	-0.004379
N	-0.0993181392	-2.0918671097	-0.7291750146	-0.263124
C	 0.0914782861	-2.1012797035	 0.638924711	-0.213821
C	 0.1432198414	-0.8120563879	 1.1005340677	 0.327089
O	 0.3066599858	-0.2274455196	 2.3140786034	-0.440047
H	 0.9171753145	 1.8500975503	 0.4119385973	 0.148018
H	-0.1741351159	 1.8139481361	-0.9914941359	 0.142463
H	-0.8409242994	 1.832748275	 0.656815302	 0.148015
H	-0.301764377	-0.4397448011	-2.0656096823	 0.122332
H	 0.17873376	-3.0187664766	 1.2004552488	 0.097663
H	 0.4054377792	-0.9203638904	 2.9740249179	 0.311794
67.2766	181.0419	239.7824	261.9328	309.7354	456.8816	658.6303	665.251	677.1177	747.7072	768.0319	771.111	930.1538	1070.1922	1124.1232	1154.1238	1160.1845	1249.6086	1297.1986	1304.4313	1372.8437	1453.3669	1479.4278	1495.079	1515.8582	1563.1062	1616.4143	3045.1631	3106.756	3142.217	3242.5515	3246.8045	3847.1209
CN1C=NC=C1O	Cn1cncc1O	
InChI=1S/C4H6N2O/c1-6-3-5-2-4(6)7/h2-3,7H,1H3	InChI=1S/C4H6N2O/c1-6-3-5-2-4(6)7/h2-3,7H,1H3
