11
gdb 1598	3.95901	2.39207	1.60384	3.8481	47.5	-0.2923	-0.0144	0.2779	710.191	0.077855	-376.610619	-376.603529	-376.602585	-376.642033	24.842	
N	-0.0532505291	 1.2785834495	-0.0287977339	-0.51582
C	 0.0345854586	-0.0656995694	-0.0742266728	 0.39979
O	 1.0567948878	-0.6979897139	-0.2552173797	-0.360221
C	-1.3022919908	-0.8577159547	 0.0543165318	-0.074146
O	-1.0196806599	-2.2173310673	 0.1338889932	-0.407962
C	-2.074564055	-0.3802202067	 1.2172557773	 0.252819
N	-2.6776573338	 0.0539011959	 2.1023933315	-0.315614
H	 0.8007215087	 1.8132777866	-0.0557956568	 0.281297
H	-0.890158979	 1.7329882941	 0.2991204706	 0.285849
H	-1.9006368955	-0.6304925254	-0.8437329581	 0.146426
H	-0.050847432	-2.2669137186	 0.0281174968	 0.307581
57.8434	147.2868	250.75	317.4313	378.4963	428.8066	464.3621	482.9768	536.0187	588.0471	638.4711	709.3846	871.61	959.0624	1109.172	1151.4815	1234.166	1345.6722	1371.8455	1447.0794	1628.462	1812.3858	2353.3748	2974.7569	3590.2449	3608.3493	3716.7821
NC(=O)C(O)C#N	NC(=O)[C@@H](O)C#N	
InChI=1S/C3H4N2O2/c4-1-2(6)3(5)7/h2,6H,(H2,5,7)	InChI=1S/C3H4N2O2/c4-1-2(6)3(5)7/h2,6H,(H2,5,7)/t2-/m0/s1
