15
gdb 1432	7.74358	1.14878	1.01918	3.4237	68.17	-0.2525	-0.0431	0.2094	1147.9697	0.121957	-308.519863	-308.511019	-308.510074	-308.55588	28.716	
C	-0.0257108388	 1.5163891252	 0.1048385925	-0.384103
C	 0.1412671578	 0.0041471311	-0.0151033792	-0.277246
C	 0.6092795747	-0.4431995232	-1.3921556471	 0.215487
O	 0.8255419208	 0.3342296066	-2.2986122905	-0.293327
C	 0.7820586386	-1.8745837165	-1.5529531015	-0.018842
C	 0.9224866542	-3.0671583986	-1.6756932959	 0.149976
C	 1.0984981207	-4.4991189639	-1.8463601611	-0.504153
H	 0.9175922814	 2.0307134341	-0.0954051995	 0.132601
H	-0.7568590996	 1.8872648084	-0.6178795235	 0.132601
H	-0.3623624501	 1.7868384965	 1.109501691	 0.108664
H	 0.8605141872	-0.382986715	 0.7194186706	 0.127774
H	-0.7965395725	-0.5249448791	 0.2023636801	 0.127773
H	 2.1354377098	-4.7331507311	-2.1109703374	 0.163287
H	 0.8493682032	-5.0481003479	-0.9324282073	 0.156234
H	 0.4597416125	-4.8748053864	-2.6531102412	 0.163274
7.0689	59.1776	88.9462	142.6684	201.5361	253.3936	316.8269	380.0887	432.1065	567.3277	574.1937	725.6172	807.1774	941.8829	1014.2744	1044.3445	1055.0419	1088.1603	1089.8849	1199.5522	1271.6329	1368.7713	1409.9644	1413.1146	1449.0131	1470.6438	1473.8479	1491.6077	1497.7419	1761.9199	2339.0058	3021.9179	3031.3745	3048.92	3051.1304	3094.8259	3098.12	3122.5603	3127.4811	7.0864	59.177	88.9461	142.6688	201.5364	253.3937	316.827	380.089	432.1065	567.3277	574.1936	725.6171	807.1774	941.883	1014.2745	1044.3448	1055.0422	1088.1603	1089.8849	1199.5523	1271.6331	1368.7714	1409.9645	1413.1145	1449.0133	1470.644	1473.8481	1491.6076	1497.7417	1761.9208	2339.0059	3021.918	3031.3744	3048.92	3051.1303	3094.8259	3098.12	3122.5602	3127.4811
CCC(=O)C#CC	CCC(=O)C#CC	
InChI=1S/C6H8O/c1-3-5-6(7)4-2/h4H2,1-2H3	InChI=1S/C6H8O/c1-3-5-6(7)4-2/h4H2,1-2H3
