17
gdb 2845	5.72286	1.4077	1.23432	3.3371	66.34	-0.2443	-0.0157	0.2286	984.3703	0.147271	-309.722879	-309.715089	-309.714145	-309.755098	27.843	
C	-0.2312958073	 1.5698410897	 0.1720321266	-0.374778
C	 0.1740814931	 0.1163396634	-0.1004481573	-0.20407
C	 0.8285224307	-0.5226947291	 1.1097878079	 0.018972
C	 0.0352393176	-1.2343065387	 2.1527974629	-0.297499
C	 0.9980757477	-2.0352961739	 1.2791828851	-0.117788
C	 0.4416305593	-2.9920996571	 0.299170931	 0.164694
O	 0.9835977522	-4.0183577831	-0.0337876172	-0.271813
H	 0.639124716	 2.1791649431	 0.4388999289	 0.117601
H	-0.6960495612	 2.021015998	-0.7096669135	 0.116724
H	-0.9453116364	 1.6315008333	 0.9998266684	 0.120603
H	-0.710902324	-0.45556157	-0.4000688521	 0.101964
H	 0.8652859438	 0.0801205418	-0.9517565096	 0.10903
H	 1.689045812	 0.0323673434	 1.4772433942	 0.097926
H	 0.2913078603	-1.1269095004	 3.2004661275	 0.126905
H	-1.02465368	-1.3809541905	 1.9638733471	 0.122016
H	 1.9254217922	-2.3725547703	 1.7295015977	 0.105593
H	-0.552270966	-2.7121336196	-0.1199541573	 0.063921
78.1254	104.4912	183.0141	218.0697	274.7714	300.9394	405.402	432.6245	541.258	762.1058	797.6819	844.9986	870.0429	912.1884	946.4519	1009.3832	1043.2219	1048.6503	1073.078	1107.847	1142.6148	1188.2137	1198.9744	1234.0978	1298.7303	1339.3655	1352.7419	1409.7117	1421.7323	1453.0487	1483.3894	1492.8689	1498.0529	1507.9437	1813.8849	2862.1376	3029.8729	3034.0756	3065.5781	3102.6568	3109.2357	3127.3306	3131.7327	3174.8739	3217.3834
CCC1CC1C=O	CC[C@H]1C[C@H]1C=O	
InChI=1S/C6H10O/c1-2-5-3-6(5)4-7/h4-6H,2-3H2,1H3	InChI=1S/C6H10O/c1-2-5-3-6(5)4-7/h4-6H,2-3H2,1H3/t5-,6-/m0/s1
