14
gdb 1506	4.75431	1.62059	1.298	2.322	56.34	-0.2508	-0.0755	0.1753	909.7756	0.112327	-361.755045	-361.747226	-361.746281	-361.788152	26.294	
C	 0.1570198875	 1.3786245986	 0.2171457734	-0.374566
C	-0.3432615345	-0.0670515057	 0.2021348678	-0.146528
N	 0.2414711363	-0.8720544436	 1.2611302559	-0.301567
C	 1.0593481959	-1.922918511	 1.040840551	 0.301735
O	 1.4117219654	-2.3685383332	-0.037765124	-0.360868
C	 1.5544659795	-2.5727022886	 2.337299051	 0.104208
O	 1.2552004079	-2.1832179209	 3.436936834	-0.248182
H	 1.2405700955	 1.4172279041	 0.0740734739	 0.134321
H	-0.3181391414	 1.9509655233	-0.585337683	 0.125585
H	-0.0799276137	 1.8719305897	 1.1658908173	 0.118918
H	-1.4362600025	-0.0899235223	 0.2935625583	 0.115798
H	-0.0788076596	-0.5609259488	-0.7357034536	 0.151084
H	 0.0724581517	-0.6425082807	 2.231032314	 0.262493
H	 2.2192588521	-3.4394706509	 2.1532180941	 0.117569
35.7456	90.6218	171.7173	183.4249	254.1576	318.0087	408.638	510.5148	569.4842	650.5569	692.7752	783.3254	893.7977	951.6567	1025.6642	1085.323	1133.3332	1178.0144	1255.9322	1321.7313	1362.1554	1392.6622	1412.4477	1488.7627	1492.9182	1504.8294	1560.6468	1786.2293	1822.6587	2957.1301	3031.0449	3038.2146	3100.2213	3118.4103	3125.6918	3597.4144
CCNC(=O)C=O	CCNC(=O)C=O	
InChI=1S/C4H7NO2/c1-2-5-4(7)3-6/h3H,2H2,1H3,(H,5,7)	InChI=1S/C4H7NO2/c1-2-5-4(7)3-6/h3H,2H2,1H3,(H,5,7)
