8
gdb 3648	10.22655	2.05253	1.70944	2.5783	49.38	-0.296	-0.088	0.208	637.2897	0.042374	-354.197108	-354.191762	-354.190818	-354.226257	18.783	
C	 0.0519858214	-1.1776764183	-0.0046275445	-0.372182
C	-0.0096793797	 0.021681095	 0.0029137142	 0.318256
C	-0.0556586664	 1.4306188153	 0.0114126603	 0.257591
N	-1.149394014	 2.1522889903	 0.0295581413	-0.137768
O	-0.7177572703	 3.4244417063	 0.0309662628	-0.132061
N	 0.684846574	 3.4327045306	 0.0125232305	 0.033324
N	 1.0754344796	 2.2436899945	 0.0007873829	-0.19137
H	 0.1013065354	-2.2397030037	-0.0112331475	 0.224211
170.1799	179.9916	467.6531	525.4762	611.4877	648.0286	666.0167	671.3549	704.2497	777.0736	962.5883	1056.94	1105.3948	1258.1978	1489.2909	1549.89	2260.2607	3495.9429
C#CC1=NON=N1	C#Cc1nonn1	
InChI=1S/C3HN3O/c1-2-3-4-6-7-5-3/h1H	InChI=1S/C3HN3O/c1-2-3-4-6-7-5-3/h1H
