13
gdb 882	6.87267	2.12729	1.64107	3.995	56.15	-0.1889	0.0448	0.2337	721.2931	0.103178	-340.702898	-340.696288	-340.695344	-340.73311	24.236	
C	-0.011832065	 1.5168050799	 0.0532548361	-0.498658
C	-0.0046120635	 0.0325970223	-0.0500036486	 0.32596
C	-0.0564415289	-0.7824682967	-1.1252265125	-0.180206
N	-0.0183189989	-2.0991001963	-0.6643849855	-0.333237
C	 0.0578188218	-2.1452795404	 0.7207878697	 0.440665
O	 0.1066825019	-3.1176932417	 1.4481782227	-0.433985
N	 0.0657523914	-0.7986589679	 1.071530787	-0.390411
H	 0.8983678491	 1.8964563046	 0.5339046683	 0.133686
H	-0.0750268368	 1.9617014561	-0.9425160691	 0.138541
H	-0.8655032128	 1.8803928769	 0.6386140472	 0.133574
H	-0.1160822897	-0.5408118953	-2.1723788822	 0.133665
H	-0.0438203429	-2.9341031375	-1.220987223	 0.266935
H	 0.1156912843	-0.504863814	 2.0309422699	 0.26347
153.6328	173.2832	254.3619	284.3548	385.8419	478.8125	507.9712	616.7939	621.4223	697.5378	760.3271	763.7109	975.9881	999.4439	1013.2203	1067.9691	1093.4547	1194.2441	1250.5254	1360.0343	1390.9231	1415.9471	1427.1336	1474.7997	1499.9376	1697.3402	1843.9449	3019.2043	3064.4034	3123.1071	3284.3879	3692.7618	3703.2735
CC1=CNC(=O)N1	Cc1c[nH]c(=O)[nH]1	
InChI=1S/C4H6N2O/c1-3-2-5-4(7)6-3/h2H,1H3,(H2,5,6,7)	InChI=1S/C4H6N2O/c1-3-2-5-4(7)6-3/h2H,1H3,(H2,5,6,7)
