13
gdb 3152	4.45115	2.71468	1.97068	4.2306	54.36	-0.2723	0.0079	0.2802	652.8882	0.102442	-344.464151	-344.458132	-344.457188	-344.49402	22.095	
O	-0.0033169189	 0.0884047377	-0.2884100067	-0.338159
C	 0.0380562193	 1.2450835571	-0.0155785351	 0.433319
O	-0.981672028	 2.0450191939	 0.4600585735	-0.254284
C	-0.1077576481	 3.2226428215	 0.5101985419	-0.147424
C	 1.0356383443	 2.3655327727	-0.0132865401	 0.128519
C	 2.4880587078	 2.283412382	 0.3690093651	-0.311467
C	 2.1023940097	 2.6296600029	-1.0402667061	-0.311468
H	-0.4780347286	 4.006648726	-0.1545102359	 0.127289
H	-0.0158312969	 3.5917340815	 1.5343711362	 0.127289
H	 2.8787513368	 3.0714131655	 1.0038248827	 0.128875
H	 2.8857914882	 1.2944103403	 0.5682609029	 0.144319
H	 2.2344413746	 1.8791930373	-1.811875477	 0.144318
H	 2.2288230798	 3.6549140215	-1.3710939113	 0.128874
155.8134	200.0482	216.279	336.757	493.5466	620.6608	731.3832	770.4573	790.3262	860.802	879.6117	952.4075	959.3304	1019.1143	1061.3717	1079.538	1095.7869	1103.3246	1146.3616	1196.4532	1242.9202	1317.52	1408.0638	1459.8662	1500.8194	1516.8932	1937.0017	3064.3105	3123.6153	3135.8882	3137.879	3219.2337	3233.237
O=C1OCC11CC1	O=C1OCC21CC2	
InChI=1S/C5H6O2/c6-4-5(1-2-5)3-7-4/h1-3H2	InChI=1S/C5H6O2/c6-4-5(1-2-5)3-7-4/h1-3H2
