19
gdb 2174	3.59653	2.5718	1.89484	1.3559	66.53	-0.2603	0.0684	0.3287	764.9941	0.172695	-310.938583	-310.930911	-310.929967	-310.970575	28.595	
C	-0.1935661236	 1.539065607	 0.0361948157	-0.40945
C	 0.0656085433	 0.0345641483	 0.0627389559	 0.046585
C	 0.8342140519	-0.515025919	-1.1597918614	-0.200011
C	 1.4656199286	-1.8558710779	-0.6920188697	-0.198599
C	 1.2547079528	-1.903464437	 0.8464867189	-0.232815
C	 0.910407143	-0.4615442172	 1.2473449685	 0.127655
O	 2.0752408094	 0.3600360052	 1.3122641981	-0.442313
H	 0.7497841395	 2.0907302752	 0.0318479433	 0.133713
H	-0.7625990728	 1.8214930697	-0.8558728013	 0.105224
H	-0.7674207178	 1.8608433158	 0.9121284691	 0.10498
H	-0.8969736151	-0.4911109015	 0.1328012453	 0.064977
H	 0.1835583794	-0.6362212117	-2.0305604495	 0.087879
H	 1.6183019241	 0.1952729913	-1.4388635249	 0.107368
H	 0.9975124799	-2.7176932724	-1.1758250809	 0.095028
H	 2.5278359545	-1.8937179165	-0.946129778	 0.10148
H	 0.4137932186	-2.5577721518	 1.1037387761	 0.095884
H	 2.1270975473	-2.2827544128	 1.389940847	 0.08127
H	 0.3577823456	-0.4124467264	 2.1978632257	 0.050844
H	 2.6655176113	-0.0159722281	 1.9719358021	 0.280301
41.8955	152.0165	219.1646	254.5504	283.1873	325.0614	388.8946	515.7882	606.1522	709.7993	766.5892	838.1139	859.3156	893.6698	899.8905	962.7938	993.3535	1012.8481	1040.7429	1063.394	1111.2734	1154.3222	1193.9536	1208.2871	1232.3336	1267.6384	1297.5538	1309.1665	1332.7199	1338.2131	1356.2698	1386.7833	1405.0262	1425.753	1481.2524	1487.1877	1494.6932	1503.6334	1511.3201	2982.2169	3007.6511	3033.9355	3036.0244	3050.8066	3063.2067	3068.5442	3086.9654	3093.5019	3107.393	3123.5914	3826.1039
CC1CCCC1O	C[C@H]1CCC[C@H]1O	
InChI=1S/C6H12O/c1-5-3-2-4-6(5)7/h5-7H,2-4H2,1H3	InChI=1S/C6H12O/c1-5-3-2-4-6(5)7/h5-7H,2-4H2,1H3/t5-,6+/m0/s1
