16
gdb 1529	8.2517	1.23887	1.12158	4.1765	59.74	-0.244	0.0287	0.2727	1063.5931	0.134805	-362.925466	-362.916581	-362.915636	-362.960229	28.848	
C	 0.0702718302	 1.4277964014	-0.0828680899	-0.33251
N	 0.2597346477	-0.0062022187	 0.0157656667	-0.316378
C	 0.3806692855	-0.6469427617	 1.2157876121	 0.395581
O	 0.3502802282	-0.0819615781	 2.2893064577	-0.353233
C	 0.4950750068	-2.1712000809	 1.093312673	-0.162136
O	 1.3907236079	-2.6340861082	 2.0630246545	-0.208414
C	 1.4376873142	-4.0390206391	 2.135443461	-0.222399
H	 0.9305644621	 1.9165644861	-0.554346512	 0.126866
H	-0.8296159201	 1.6699443179	-0.658652754	 0.124159
H	-0.0381320016	 1.8092178035	 0.9330840782	 0.17346
H	 0.3664877131	-0.5391039157	-0.8310014761	 0.244313
H	-0.5141349773	-2.5933437465	 1.2482798768	 0.111091
H	 0.8155461344	-2.4693561948	 0.0787503754	 0.078544
H	 0.4537130169	-4.4668233668	 2.3851676709	 0.10642
H	 1.7772662072	-4.4900206311	 1.1888800398	 0.100871
H	 2.1476146546	-4.2980714173	 2.9240495757	 0.133764
27.7608	77.2195	81.815	133.4633	205.0988	233.2676	300.4806	357.2984	424.1549	444.2521	629.6671	744.5099	909.2903	988.6041	1020.0599	1088.9993	1153.9571	1168.8727	1176.9663	1183.2337	1224.5311	1235.3446	1274.5941	1419.6049	1439.2478	1474.8831	1485.7601	1491.7665	1493.523	1500.6696	1517.0814	1560.2704	1802.6738	2934.2104	2962.3144	2967.6249	3010.6733	3026.9844	3079.21	3119.6015	3153.4755	3649.6322
CNC(=O)COC	CNC(=O)COC	
InChI=1S/C4H9NO2/c1-5-4(6)3-7-2/h3H2,1-2H3,(H,5,6)	InChI=1S/C4H9NO2/c1-5-4(6)3-7-2/h3H2,1-2H3,(H,5,6)
