15
gdb 3005	7.0961	1.51216	1.39259	3.8854	58.71	-0.2429	-0.0077	0.2352	878.3874	0.123673	-345.649552	-345.64196	-345.641016	-345.681662	26.611	
O	 0.0093548613	 1.4014412685	 0.0024904724	-0.394281
C	-0.0374174199	 0.0009553382	-0.0173096418	-0.181147
C	-1.4834145277	-0.4771912882	 0.0508156327	 0.383093
O	-2.4193780163	 0.2859748991	 0.1114575037	-0.312742
C	-1.6526125712	-1.959881736	 0.0368931129	-0.112627
C	-2.8148094377	-2.5336338441	 0.8343512484	-0.247102
C	-2.8921573201	-2.5107104872	-0.6530292257	-0.247111
H	 0.9312918535	 1.6697279372	-0.047576354	 0.292446
H	 0.4072596455	-0.4309336866	-0.9320880993	 0.108852
H	 0.4994673285	-0.4588611785	 0.8321534368	 0.108799
H	-0.7449584936	-2.5519245613	-0.0194138996	 0.084439
H	-2.6499368393	-3.4786748821	 1.3387469491	 0.117683
H	-3.4104133108	-1.8077966472	 1.3759540189	 0.141016
H	-3.5394886026	-1.769422001	-1.1073231111	 0.141002
H	-2.7821407094	-3.4394908408	-1.2007141433	 0.117681
60.6906	110.327	188.3811	225.8227	263.7542	299.0484	382.491	581.8714	649.0967	783.4823	825.329	831.5539	871.3086	910.6598	1025.8855	1044.692	1075.4093	1097.3112	1108.5474	1128.0388	1155.5164	1210.099	1224.1981	1235.3774	1251.7723	1398.5634	1444.474	1452.3739	1485.252	1493.5479	1811.7293	2942.4754	2963.2285	3141.1737	3142.4808	3162.3152	3228.8325	3243.2129	3835.9802
OCC(=O)C1CC1	OCC(=O)C1CC1	
InChI=1S/C5H8O2/c6-3-5(7)4-1-2-4/h4,6H,1-3H2	InChI=1S/C5H8O2/c6-3-5(7)4-1-2-4/h4,6H,1-3H2
