15
gdb 3038	10.31662	1.15692	1.11966	4.2414	62.18	-0.2382	0.024	0.2622	1026.7322	0.125443	-304.679494	-304.672165	-304.671221	-304.711474	25.874	
N	-0.0475948532	-1.0919354393	-0.0481481403	-0.297841
C	 0.0342589866	 0.0498309124	 0.1054460829	 0.253849
C	 0.1583258521	 1.4929682915	 0.325839258	-0.257758
N	 1.2203061017	 2.0614905024	-0.4996198563	-0.299741
C	 1.3888317627	 3.4772289829	-0.2975904646	 0.067725
C	 2.0193925353	 4.0559495249	 0.9559219418	-0.276095
C	 2.7570198182	 4.0781760725	-0.3669044867	-0.288135
H	-0.7917325271	 1.9670938811	 0.049565377	 0.156558
H	 0.2883055514	 1.6657554414	 1.4087894787	 0.134254
H	 2.0900123483	 1.5660726868	-0.3366238478	 0.232201
H	 0.5793738563	 4.0538860615	-0.7394999568	 0.101656
H	 1.6364112052	 4.9892863247	 1.3540585549	 0.118147
H	 2.3745757594	 3.3596741563	 1.7091411085	 0.112597
H	 3.5991741236	 3.4029379672	-0.4834666731	 0.118471
H	 2.8789816695	 5.0230310637	-0.8838021762	 0.124114
63.0465	105.0508	131.6432	254.6094	369.1493	399.6027	451.3277	544.0439	720.1294	763.9189	812.6829	851.9928	917.305	976.6226	993.3429	1004.1579	1045.031	1079.3823	1112.2555	1130.2042	1191.8958	1194.6958	1240.7004	1271.2509	1344.8956	1404.0149	1463.1938	1490.8681	1493.2156	1511.1858	2368.5586	2951.0289	3049.0316	3127.6321	3131.5326	3134.7852	3208.8047	3223.7184	3536.5025
N#CCNC1CC1	N#CCNC1CC1	
InChI=1S/C5H8N2/c6-3-4-7-5-1-2-5/h5,7H,1-2,4H2	InChI=1S/C5H8N2/c6-3-4-7-5-1-2-5/h5,7H,1-2,4H2
