14
gdb 2871	7.19321	1.80896	1.49248	4.536	65.88	-0.2596	-0.039	0.2206	790.5964	0.11553	-287.478272	-287.471971	-287.471027	-287.508562	22.929	
N	 0.0622285453	-1.1225716764	-0.2968699579	-0.336298
C	 0.0020930372	 0.0268190746	-0.1629907549	 0.197711
C	-0.0273047531	 1.4379179811	 0.0039838727	 0.212646
C	-1.125351535	 2.204203148	-0.0458378112	-0.142494
C	-0.8121665955	 3.6515885362	 0.2218756845	-0.249194
C	 0.7348746461	 3.7078028512	 0.1266895618	-0.215486
C	 1.2196982685	 2.248557286	 0.3192421304	-0.306835
H	-2.1276122875	 1.8309802274	-0.2197528874	 0.119791
H	-1.3063931454	 4.3267659147	-0.4848448735	 0.118831
H	-1.1769431548	 3.9345404306	 1.2196913049	 0.123164
H	 1.0235400771	 4.0572848032	-0.8688664796	 0.117347
H	 1.1771086505	 4.3935166521	 0.8523883803	 0.110274
H	 1.5448824412	 2.0498571521	 1.3483730452	 0.1251
H	 2.0612130156	 1.9903672891	-0.3301091453	 0.125444
120.6764	169.4047	178.4029	379.8516	510.7272	560.9179	570.1057	655.8173	813.8632	852.3124	880.6907	914.3795	918.5642	963.3437	1035.449	1067.3125	1148.7659	1161.0041	1229.3537	1241.6333	1279.3377	1319.0863	1328.6444	1352.8828	1478.2201	1487.2592	1505.4225	1677.4045	2336.9699	3010.459	3030.2629	3056.4025	3068.5845	3084.024	3113.7755	3210.4336
N#CC1=CCCC1	N#CC1=CCCC1	
InChI=1S/C6H7N/c7-5-6-3-1-2-4-6/h3H,1-2,4H2	InChI=1S/C6H7N/c7-5-6-3-1-2-4-6/h3H,1-2,4H2
