13
gdb 1502	6.77844	1.31011	1.11294	1.4015	57.27	-0.2671	-0.0585	0.2086	982.9256	0.098667	-344.424745	-344.416715	-344.415771	-344.457536	27.189	
O	-0.1558234144	 1.4531353021	 0.0113694898	-0.425521
C	 0.0284589703	 0.0458574105	 0.0020188789	-0.082947
C	-1.3581942794	-0.5813857612	 0.0119118512	-0.286918
C	-1.3248811314	-2.095010535	 0.0034359324	 0.227537
O	-0.2961704529	-2.7377834451	-0.0101098603	-0.291174
C	-2.6259703531	-2.7464169246	 0.0125636333	 0.245676
C	-3.7103695902	-3.268690624	 0.020105464	-0.386942
H	 0.7120901042	 1.8667881838	 0.0056693821	 0.288853
H	 0.5784624188	-0.2891667699	-0.8887948135	 0.105135
H	 0.5953861018	-0.2987037363	 0.8784694136	 0.105128
H	-1.9229717636	-0.2463883474	 0.8915926303	 0.142908
H	-1.9396387445	-0.237035816	-0.8531864813	 0.14292
H	-4.6603250357	-3.7459864568	 0.0257966593	 0.215347
70.2828	92.7964	119.0618	225.1766	244.1456	272.2622	374.3578	468.0116	572.3469	612.4513	647.0898	705.6	805.4186	850.7328	1016.4398	1061.0737	1073.1828	1122.1658	1205.2505	1255.9942	1297.9028	1350.4668	1445.2648	1469.1257	1522.4703	1763.9293	2212.3883	2996.9	3025.6244	3034.4268	3068.8701	3494.7346	3833.8108
OCCC(=O)C#C	OCCC(=O)C#C	
InChI=1S/C5H6O2/c1-2-5(7)3-4-6/h1,6H,3-4H2	InChI=1S/C5H6O2/c1-2-5(7)3-4-6/h1,6H,3-4H2
