12
gdb 3861	7.87008	2.07029	1.64488	3.8513	53.37	-0.2077	0.0307	0.2384	703.5086	0.091829	-356.691214	-356.6849	-356.683956	-356.720885	24.007	
N	 0.0407053414	 1.3726804049	 0.1499761725	-0.59465
C	-0.0823654959	 0.006361075	 0.0611883529	 0.504357
C	-1.1565636307	-0.8367025929	 0.0794320391	-0.426978
C	-0.5478743368	-2.1245192055	 0.0393645788	 0.438478
N	-1.1974782675	-3.3466105907	 0.1142940845	-0.589617
N	 0.7662548395	-2.0698218807	-0.0164193307	-0.247603
O	 1.0631479336	-0.6790657729	 0.0084669559	-0.220279
H	 0.9200300593	 1.7264745688	-0.1999788752	 0.265734
H	-0.7529304334	 1.8923764694	-0.1925371473	 0.263024
H	-2.2018919321	-0.5887848133	 0.1485688961	 0.099666
H	-2.0693857165	-3.3798267639	-0.3944226957	 0.250668
H	-0.594255321	-4.1201725383	-0.133235461	 0.257201
199.8775	264.7438	286.7012	331.6383	384.2378	464.3703	577.1407	617.6774	647.8536	696.6014	708.7998	766.2502	781.7298	918.348	1007.1363	1041.7488	1090.782	1140.8086	1212.5755	1390.1816	1522.8173	1563.3256	1629.43	1649.8771	1682.6512	3276.0195	3553.0894	3571.6825	3652.9107	3677.3731
NC1=CC(N)=NO1	Nc1cc(N)no1	
InChI=1S/C3H5N3O/c4-2-1-3(5)7-6-2/h1H,5H2,(H2,4,6)	InChI=1S/C3H5N3O/c4-2-1-3(5)7-6-2/h1H,5H2,(H2,4,6)
