14
gdb 1837	6.58579	2.06184	1.60153	3.8779	63.45	-0.2395	-0.0235	0.216	755.4821	0.114302	-324.609784	-324.603316	-324.602372	-324.640045	23.689	
C	-0.0302966486	 1.4748930255	 0.0571175143	-0.496311
C	-0.0012155528	-0.0130137074	-0.0379456916	 0.300597
C	-0.0417765035	-0.80365681	-1.1143218271	-0.263613
C	 0.0133242938	-2.207199343	-0.6966025068	 0.418818
N	-0.0036640446	-3.2320791429	-1.4399936976	-0.553079
O	 0.08911703	-2.2342084879	 0.6802150106	-0.249742
C	 0.08563116	-0.8981340161	 1.1795266064	-0.166545
H	 0.8691004687	 1.855750815	 0.5566386047	 0.138822
H	-0.0945884316	 1.9369000839	-0.9304489452	 0.14061
H	-0.8868466172	 1.8153283504	 0.6520289447	 0.138832
H	-0.1051475488	-0.5132907269	-2.1528346255	 0.12256
H	 0.0466751697	-4.0821516684	-0.8763580552	 0.220676
H	 1.0017119549	-0.7238968491	 1.7614586832	 0.124187
H	-0.7686984701	-0.7646481832	 1.858134695	 0.124186
138.9076	177.0032	221.3408	279.3247	432.8984	466.0026	583.4035	691.1529	702.1856	858.6897	896.5908	898.6413	906.3796	989.9208	1002.1347	1041.8734	1088.2156	1093.0349	1181.2827	1200.1162	1257.8432	1349.4552	1386.7658	1415.4165	1477.9685	1483.5138	1502.1397	1706.5512	1760.5598	3002.7411	3024.8232	3030.8522	3071.9491	3125.2223	3249.2691	3478.3955
CC1=CC(=N)OC1	C[C]1C=C([NH])OC1	
InChI=1S/C5H7NO/c1-4-2-5(6)7-3-4/h2,6H,3H2,1H3	InChI=1S/C5H7NO/c1-4-2-5(6)7-3-4/h2,6H,3H2,1H3
