13
gdb 1849	6.46026	2.15802	1.65078	3.127	55.58	-0.2441	-0.0093	0.2348	719.4311	0.102655	-340.697732	-340.691316	-340.690372	-340.727945	23.305	
C	-0.0159890884	 1.4923211748	 0.0163667136	-0.487422
C	-0.0064086594	 0.0012901882	-0.0402186817	 0.378315
N	-0.0601469489	-0.6973451432	-1.1115838906	-0.280665
C	-0.0244063892	-2.0993666561	-0.6943190627	-0.299268
C	 0.0608654706	-2.1033123993	 0.8380366112	 0.400437
O	 0.1130687727	-3.0183452088	 1.6208481836	-0.357874
N	 0.0661846364	-0.7453032019	 1.1406572885	-0.363834
H	 0.8941124883	 1.8704413245	 0.4952441395	 0.142211
H	-0.0787535254	 1.8877297151	-0.9973283961	 0.162212
H	-0.8701104934	 1.8553428115	 0.5988020797	 0.142064
H	-0.919797598	-2.6352015627	-1.028831482	 0.149511
H	 0.8377416483	-2.6195014699	-1.1266536523	 0.149551
H	 0.1156630466	-0.3823889922	 2.0787632693	 0.264761
135.03	158.7984	264.2962	303.3779	463.3205	492.5614	553.407	617.2346	643.9795	699.2782	882.1482	971.6882	973.0473	975.7409	1066.7188	1071.8561	1180.0256	1183.1837	1256.4676	1288.0361	1397.618	1432.5737	1441.5738	1479.9178	1481.0203	1709.0253	1856.2369	3039.1519	3050.4971	3084.2223	3094.5082	3159.6537	3654.2848
CC1=NCC(=O)N1	CC1=NCC(=O)N1	
InChI=1S/C4H6N2O/c1-3-5-2-4(7)6-3/h2H2,1H3,(H,5,6,7)	InChI=1S/C4H6N2O/c1-3-5-2-4(7)6-3/h2H2,1H3,(H,5,6,7)
