14
gdb 639	6.45091	2.82383	2.41929	1.5413	49.27	-0.265	0.0859	0.351	573.6363	0.118887	-307.545457	-307.539022	-307.538078	-307.57526	23.351	
C	-0.077852833	 1.5337317871	 0.1262147186	-0.398549
C	 0.0235058855	 0.0110869643	-0.0113619619	 0.10462
O	 0.7598398225	-0.5605346526	 1.0553660847	-0.434707
C	-1.3576959146	-0.623727768	-0.0955705744	 0.076922
C	-1.5951072601	-2.0067963847	 0.3236901485	-0.185503
O	-1.9514308869	-0.9068299527	 1.1793816027	-0.250995
H	 0.9207879733	 1.9654029301	 0.2277016876	 0.126712
H	-0.5640723818	 1.9802235446	-0.7480282299	 0.111318
H	-0.6623866071	 1.7996511209	 1.0137829196	 0.124194
H	 0.5759690633	-0.2346755558	-0.9273958224	 0.093963
H	 0.1541328839	-0.5766483591	 1.8094948273	 0.288195
H	-2.0411207291	-0.1749659143	-0.8175014999	 0.094597
H	-2.4378953446	-2.5588495703	-0.0875576536	 0.11878
H	-0.7544075714	-2.6014551094	 0.6711930329	 0.130455
107.4628	232.4027	253.4316	277.0908	386.225	458.9751	505.5388	644.5712	748.5886	848.6379	901.6325	951.0492	991.1368	1044.2087	1095.3017	1110.1879	1149.3342	1166.6171	1175.3619	1271.5498	1307.4477	1344.4183	1401.1592	1420.5286	1436.1551	1493.7261	1496.9167	1516.4357	3032.3386	3033.7009	3099.067	3101.7327	3109.9474	3125.103	3197.1774	3750.1931
CC(O)C1CO1	C[C@@H](O)[C@H]1CO1	
InChI=1S/C4H8O2/c1-3(5)4-2-6-4/h3-5H,2H2,1H3	InChI=1S/C4H8O2/c1-3(5)4-2-6-4/h3-5H,2H2,1H3/t3-,4-/m1/s1
