21
gdb 3012	4.5769	1.57102	1.28598	0.0772	74.56	-0.271	0.0918	0.3627	1015.7505	0.194089	-274.982348	-274.973751	-274.972807	-275.015131	31.808	
C	-0.1627402322	 1.5212788012	-0.0447639599	-0.390907
C	-0.0316781734	-0.0022888379	-0.1376526197	-0.161844
C	 0.8965713049	-0.5055517288	-1.2603052971	 0.030836
C	 2.3562707316	-0.0719085821	-1.0575988354	-0.39243
C	 0.8024870689	-2.0163207792	-1.3931810424	 0.046853
C	-0.3172787298	-2.6537681635	-2.1752719437	-0.275115
C	 1.0961635285	-2.6933176637	-2.7072062876	-0.278064
H	 0.788275547	 2.0020563601	 0.204280303	 0.116932
H	-0.5101683349	 1.9462682683	-0.9936172545	 0.11104
H	-0.8842700077	 1.8053964077	 0.7279028342	 0.110354
H	 0.3261452506	-0.3990979603	 0.822832261	 0.088692
H	-1.0258778851	-0.4387781385	-0.2930780222	 0.095302
H	 0.5412132235	-0.0708250775	-2.2073708039	 0.060856
H	 2.9908339318	-0.4565308852	-1.8619880229	 0.113498
H	 2.4620008048	 1.016685717	-1.039807635	 0.110868
H	 2.7494260147	-0.4602090161	-0.1100734032	 0.108654
H	 1.1230653484	-2.5562160675	-0.5037546199	 0.074578
H	-0.7557424458	-3.5740283849	-1.8050289996	 0.107693
H	-1.0237788884	-1.9966550293	-2.6730276495	 0.107244
H	 1.3312504626	-2.0617908009	-3.5584069583	 0.107352
H	 1.6241122799	-3.640653659	-2.7010974633	 0.107608
82.4124	98.4003	173.1129	212.1422	216.0287	278.4083	300.0097	402.6516	445.7473	464.1133	751.2255	781.7271	818.5187	825.8893	856.2554	932.8109	950.6122	968.2795	996.7712	1018.0234	1049.3751	1058.3712	1076.7563	1138.2997	1150.0655	1180.7356	1198.1733	1216.267	1226.0158	1286.3645	1307.4633	1350.9613	1375.5808	1407.05	1413.199	1419.2512	1469.4428	1483.8232	1494.9273	1498.7911	1504.9265	1507.1458	1509.9894	2983.272	3011.5721	3027.9672	3031.1713	3050.0206	3093.338	3095.2031	3102.3507	3110.4458	3118.7779	3124.8338	3130.3641	3202.2095	3217.5597
CCC(C)C1CC1	CC[C@@H](C)C1CC1	
InChI=1S/C7H14/c1-3-6(2)7-4-5-7/h6-7H,3-5H2,1-2H3	InChI=1S/C7H14/c1-3-6(2)7-4-5-7/h6-7H,3-5H2,1-2H3/t6-/m1/s1
