14
gdb 655	5.08056	4.85085	2.70226	1.1836	54.57	-0.2427	0.0243	0.2671	504.8171	0.12179	-270.435807	-270.430526	-270.429581	-270.46427	19.969	
C	-0.00104217	 1.4109860763	 0.0167309528	-0.072965
C	 1.4413803563	 1.9240830403	 0.0157531003	-0.247102
C	 2.2306372712	 1.2186616796	-1.0562572407	-0.05698
C	 1.7816570318	 0.1013275178	-1.6228820716	-0.064441
C	 0.4941251095	-0.5485841154	-1.1946256817	-0.108334
O	-0.0410325183	-0.0063702657	-0.003005973	-0.246574
H	-0.5371216452	 1.7182958189	 0.9190138026	 0.105049
H	-0.5391799145	 1.8203604806	-0.8545568035	 0.087959
H	 1.4470687276	 3.0086747776	-0.1527778752	 0.10155
H	 1.9021486038	 1.7629695659	 1.0000091522	 0.114931
H	 3.1777096972	 1.6533260748	-1.3646154013	 0.087631
H	 2.3306570097	-0.3896114783	-2.4222855703	 0.089344
H	-0.2461239795	-0.4882494889	-2.0152258107	 0.094111
H	 0.6533332506	-1.6155948534	-0.99613273	 0.115821
173.5999	296.4365	395.7354	486.1458	530.7676	663.4498	780.0494	851.6937	898.5629	925.4516	989.1812	1000.1426	1038.5879	1045.6859	1094.1844	1119.5795	1210.7173	1228.1323	1255.5752	1314.3649	1360.0461	1372.9111	1409.258	1425.4294	1469.1173	1485.9146	1501.325	1726.7003	2924.2264	2968.0439	3013.5639	3045.1342	3047.8148	3086.9173	3150.9454	3174.0531
C1CC=CCO1	C1CC=CCO1	
InChI=1S/C5H8O/c1-2-4-6-5-3-1/h1-2H,3-5H2	InChI=1S/C5H8O/c1-2-4-6-5-3-1/h1-2H,3-5H2
