14
gdb 2405	3.68228	3.42332	2.27725	1.9429	58.91	-0.2481	0.0028	0.2509	618.7961	0.113338	-324.514429	-324.508287	-324.507343	-324.544176	23.203	
C	 0.0175688636	 1.5072879485	-0.0979147184	-0.341814
N	 0.0059617234	 0.0489763429	 0.0522586125	-0.089372
C	-1.1468630732	-0.5920865326	 0.8148965938	-0.136905
C	-0.1977598123	-1.8027642148	 1.0132271114	-0.217085
C	 0.6952895476	-0.5601886971	 1.2668864353	-0.136904
C	-0.4913050498	 0.0282500845	 2.0803990654	 0.418404
O	-0.7275508474	 0.7564945891	 2.9918437634	-0.317579
H	 1.009473642	 1.8073653137	-0.4486802827	 0.130215
H	-0.7084784443	 1.7776119341	-0.8704025694	 0.130214
H	-0.2167423171	 2.071915455	 0.8167669264	 0.129796
H	-2.1692692827	-0.5699205033	 0.442311376	 0.100165
H	-0.3926082409	-2.4687349024	 1.8543599135	 0.113353
H	 0.0392682513	-2.321822978	 0.0838163878	 0.117347
H	 1.7727207396	-0.5016616098	 1.4095145351	 0.100165
143.8435	201.6756	303.6372	337.5161	439.2976	534.874	636.9103	726.0279	778.2318	812.0428	833.4095	899.1457	948.5977	1012.3385	1013.1749	1087.3284	1113.523	1157.0336	1166.403	1174.7301	1194.1337	1215.4225	1219.7283	1250.6175	1449.6704	1477.69	1494.1154	1500.5802	1902.3516	2993.8035	3081.3801	3083.9903	3112.7991	3141.9053	3146.4465	3165.2286
CN1C2CC1C2=O	CN1[C@H]2C[C@@H]1C2=O	
InChI=1S/C5H7NO/c1-6-3-2-4(6)5(3)7/h3-4H,2H2,1H3	InChI=1S/C5H7NO/c1-6-3-2-4(6)5(3)7/h3-4H,2H2,1H3/t3-,4+
