14
gdb 4432	3.41118	1.93769	1.25505	5.2013	60.67	-0.231	0.0198	0.2508	925.157	0.106176	-419.746827	-419.739287	-419.738343	-419.778632	26.965	
C	 0.1658459223	 1.5234363959	 0.0462185938	-0.491599
C	-0.0382193714	 0.0588364187	-0.0321341903	 0.232393
C	-1.1045267763	-0.7423955003	 0.0077138604	 0.232381
C	-2.5628401198	-0.5270154622	 0.1480368034	-0.491604
O	-0.6666196689	-2.0583672602	-0.1165496815	-0.242124
C	 0.693520085	-2.0360910741	-0.2327225335	 0.490598
O	 1.4010242251	-2.983684192	-0.3560373923	-0.374803
O	 1.0973797003	-0.7328192912	-0.1821665252	-0.242136
H	 0.8037958339	 1.7869581358	 0.8970139041	 0.151477
H	 0.6518295511	 1.9022036925	-0.8596682337	 0.151476
H	-0.792278609	 2.0340635819	 0.1625879115	 0.140495
H	-3.1041048017	-0.9206799388	-0.7193410243	 0.151479
H	-2.9520255098	-1.0348329026	 1.0373853166	 0.15147
H	-2.7818898609	 0.5390572466	 0.2362868511	 0.140498
153.3112	160.1561	174.085	221.0652	250.1217	312.3274	342.9328	580.2598	613.8297	631.7895	636.0293	779.2127	817.9413	935.428	965.1471	1031.8802	1033.9131	1065.0048	1070.3249	1246.9472	1249.0049	1318.8001	1422.1142	1426.6124	1466.6284	1468.5815	1490.4137	1491.6659	1792.8515	1937.3966	3035.6368	3036.89	3089.2621	3089.4529	3132.3613	3136.6018
CC1=C(C)OC(=O)O1	Cc1c(C)oc(=O)o1	
InChI=1S/C5H6O3/c1-3-4(2)8-5(6)7-3/h1-2H3	InChI=1S/C5H6O3/c1-3-4(2)8-5(6)7-3/h1-2H3
