15
gdb 3052	7.3142	1.34198	1.22071	4.173	58.5	-0.2751	0.0098	0.285	953.5294	0.124445	-345.660642	-345.653359	-345.652414	-345.692918	25.215	
O	 0.2292087546	 0.3144725291	-0.7461847302	-0.275722
C	 0.3052538827	 1.4866219058	-0.5313027982	 0.17811
O	 0.9358212909	 1.9942636689	 0.5418985132	-0.175059
C	 1.0392516109	 3.4241686442	 0.6491475695	-0.109327
C	 2.3954454606	 3.9072301722	 0.2132490512	 0.02215
C	 2.6611538988	 4.2206976902	-1.2377838204	-0.257081
C	 2.5599606694	 5.3388842554	-0.2319531404	-0.270532
H	-0.1435006754	 2.2693830392	-1.1756583974	 0.070359
H	 0.2490422928	 3.9021686428	 0.0541944035	 0.106467
H	 0.8533494762	 3.6521408255	 1.7025886748	 0.127867
H	 3.217134228	 3.4731941981	 0.7746974749	 0.103921
H	 3.6357025255	 3.973668128	-1.642498827	 0.124825
H	 1.8457883517	 4.1016181289	-1.9441618382	 0.114477
H	 1.6765327591	 5.9686270895	-0.2614555842	 0.116431
H	 3.4640807443	 5.8617933122	 0.0575281091	 0.123114
58.1172	79.6727	158.547	240.4436	332.4061	377.2668	434.4315	670.8781	774.8007	807.9318	846.4828	912.7431	954.3172	1017.9488	1036.8014	1049.8592	1057.9266	1084.6891	1137.7882	1140.5294	1196.7666	1222.4649	1233.0877	1311.3153	1376.9974	1416.5503	1440.5989	1469.9235	1494.4103	1510.3034	1867.1096	2933.4237	3018.1985	3089.6834	3132.9966	3137.4151	3160.0743	3212.7889	3227.2506
O=COCC1CC1	O=COCC1CC1	
InChI=1S/C5H8O2/c6-4-7-3-5-1-2-5/h4-5H,1-3H2	InChI=1S/C5H8O2/c6-4-7-3-5-1-2-5/h4-5H,1-3H2
