14
gdb 642	7.87479	2.95258	2.68219	1.8251	53.32	-0.241	0.0696	0.3106	534.4491	0.120166	-270.389803	-270.384161	-270.383217	-270.418893	20.683	
C	 0.0600047087	 1.5369236233	 0.0097440494	-0.320271
C	 1.3241383653	 0.7052506042	-0.0067987518	-0.320277
C	-0.0171077752	 0.0431206537	 0.0024596686	 0.317136
C	-0.6193900884	-0.8930518906	 1.0449561327	-0.131578
O	-1.1798099636	-1.723993685	 0.0040828575	-0.276155
C	-0.6393105151	-0.8818588351	-1.0383281664	-0.131578
H	-0.1993699969	 2.0574788657	 0.9265294986	 0.115919
H	-0.2167812122	 2.0672407626	-0.8962934818	 0.115919
H	 1.9040745615	 0.6719556824	-0.924030378	 0.115919
H	 1.9214645854	 0.6621586117	 0.8987922	 0.115919
H	 0.0968841901	-1.4442192207	 1.669396452	 0.099761
H	-1.3973779501	-0.4610398574	 1.6890506448	 0.099763
H	-1.4294279089	-0.4430295402	-1.6627483277	 0.099763
H	 0.0648345694	-1.4262119546	-1.6822379681	 0.099761
96.6752	275.9458	295.6811	369.5657	550.4189	771.1102	860.926	862.0029	871.3674	910.7904	955.1962	1025.7291	1028.9889	1031.421	1059.9424	1077.3686	1131.5043	1150.4162	1158.7364	1188.2121	1257.0298	1311.3607	1339.4548	1422.947	1464.0925	1510.7797	1510.8845	1536.3477	2991.4763	3002.8818	3036.1977	3037.3445	3120.1172	3123.7441	3197.6236	3212.6217
C1CC11COC1	C1CC21COC2	
InChI=1S/C5H8O/c1-2-5(1)3-6-4-5/h1-4H2	InChI=1S/C5H8O/c1-2-5(1)3-6-4-5/h1-4H2
