11
gdb 3666	3.72056	3.55931	1.83995	2.9041	49.5	-0.2397	-0.0375	0.2023	632.9049	0.077645	-376.554863	-376.548497	-376.547553	-376.585224	22.22	
C	 0.1038420932	 1.545452461	 0.0681063432	-0.497655
C	-0.0346791627	 0.0689901345	 0.0714580867	 0.320631
C	-1.0746990375	-0.7815227312	-0.1558811105	 0.244393
O	-2.3501664639	-0.4862647775	-0.4676116991	-0.426848
N	-0.6154292153	-2.0595448603	-0.0146874725	-0.204644
N	 0.6191900848	-2.0458127197	 0.2795918784	-0.016727
O	 1.0318020849	-0.7048699782	 0.3451994266	-0.200851
H	 0.8402860866	 1.8730858917	-0.67299086	 0.154841
H	-0.8590710731	 1.9996587625	-0.1738647042	 0.157258
H	 0.4281551152	 1.915836569	 1.0461800105	 0.154839
H	-2.8279063422	-1.3192013319	-0.5613832493	 0.314761
93.6547	226.5028	239.7687	298.9864	351.1851	451.4716	656.2382	661.2739	725.8194	744.1265	781.4872	986.6549	1033.7537	1065.3866	1137.9583	1255.2631	1317.7456	1402.3223	1423.9747	1456.0754	1475.2825	1488.7142	1721.5171	3041.1994	3097.5475	3138.6608	3809.7008
CC1=C(O)N=NO1	Cc1c(O)nno1	
InChI=1S/C3H4N2O2/c1-2-3(6)4-5-7-2/h6H,1H3	InChI=1S/C3H4N2O2/c1-2-3(6)4-5-7-2/h6H,1H3
