15
gdb 535	9.17284	1.64437	1.5162	3.6925	54.88	-0.2492	0.034	0.2832	810.6686	0.131133	-287.724713	-287.717322	-287.716377	-287.756983	24.754	
C	 0.0039673056	 1.5047935169	-0.1219910991	-0.377617
C	-0.1089529346	-0.0215975335	-0.1077583735	-0.168492
C	-1.4655006546	-0.4972779495	 0.4251655092	-0.142868
N	-1.5904903175	-1.9461745442	 0.4617768532	-0.274154
C	-2.3806940419	-2.6486846166	-0.3934822213	 0.154052
O	-3.0946662881	-2.167730222	-1.2479229016	-0.322655
H	 0.9774546208	 1.8258026169	-0.5035687217	 0.117999
H	-0.7676418114	 1.9518724311	-0.7578694714	 0.12471
H	-0.113270567	 1.922502505	 0.8842539712	 0.115379
H	 0.030073431	-0.421658602	-1.1186238008	 0.115191
H	 0.6936462119	-0.4475754361	 0.5091281964	 0.089344
H	-1.635945435	-0.0937783641	 1.4317117854	 0.104718
H	-2.2741249441	-0.1395704228	-0.2169093153	 0.149291
H	-1.0160345916	-2.4664961619	 1.1058706738	 0.244309
H	-2.3054227537	-3.7402999372	-0.2145488047	 0.070791
30.4584	94.4532	181.4583	234.2541	276.9118	323.123	450.118	534.3496	728.7514	777.955	882.9243	914.7884	988.1484	1031.1531	1049.8232	1126.0993	1173.8667	1216.5186	1278.5398	1330.972	1337.8481	1404.5573	1414.5273	1432.1667	1480.8178	1492.0969	1499.8242	1509.7451	1536.4205	1807.3374	2929.0095	3018.2937	3022.3225	3032.7323	3063.5246	3098.3768	3108.8564	3116.0162	3631.4549
CCCNC=O	CCCNC=O	
InChI=1S/C4H9NO/c1-2-3-5-4-6/h4H,2-3H2,1H3,(H,5,6)	InChI=1S/C4H9NO/c1-2-3-5-4-6/h4H,2-3H2,1H3,(H,5,6)
