17
gdb 2680	10.92451	0.79146	0.77844	1.2521	70.34	-0.2407	0.0378	0.2785	1483.1518	0.14626	-309.688189	-309.679054	-309.67811	-309.723696	30.45	
C	-0.0011225294	 1.5273467897	-0.1662461116	-0.381867
C	-0.058359376	-0.0005404899	-0.2161006635	-0.153983
C	-1.3799490225	-0.5568587651	 0.3517834303	-0.334665
C	-1.4628683715	-2.0120044144	 0.312515679	 0.023144
C	-1.5089418899	-3.2140057683	 0.2618498993	 0.141839
C	-1.5650393413	-4.6692308239	 0.2286442977	-0.215859
O	-2.1341357369	-5.1019437301	-1.0029515616	-0.410003
H	 0.9432448345	 1.9010150305	-0.5731607751	 0.114615
H	-0.8145571109	 1.974810369	-0.7483770986	 0.116221
H	-0.089416762	 1.8956592183	 0.8620972876	 0.114825
H	 0.0566697654	-0.3498599328	-1.2480987109	 0.111811
H	 0.7773123885	-0.4284350149	 0.3489657435	 0.107116
H	-1.5046356238	-0.2113957823	 1.3872646759	 0.12456
H	-2.2236183515	-0.1305623335	-0.2079096244	 0.128778
H	-0.5471860172	-5.0731028731	 0.3575702661	 0.112645
H	-2.1580961267	-5.027482991	 1.0863705235	 0.11319
H	-2.1544376789	-6.0642488583	-0.9849700572	 0.287632
14.0481	73.5632	95.4914	149.7747	227.9005	240.7976	277.1644	317.362	354.6405	475.5133	562.6954	741.8382	774.1703	870.8508	892.9679	1028.3536	1037.9631	1048.2498	1109.1009	1120.9313	1153.6189	1246.5101	1256.7049	1259.6427	1306.7091	1321.8895	1381.963	1412.8381	1459.8656	1469.9355	1491.72	1499.1189	1504.1966	1508.747	2372.0519	2958.3936	2975.0696	3008.7112	3028.9285	3035.4342	3041.3759	3073.0234	3099.5216	3105.0637	3816.2697
CCCC#CCO	CCCC#CCO	
InChI=1S/C6H10O/c1-2-3-4-5-6-7/h7H,2-3,6H2,1H3	InChI=1S/C6H10O/c1-2-3-4-5-6-7/h7H,2-3,6H2,1H3
