14
gdb 4149	3.338	1.54228	1.12623	4.1953	66.16	-0.2657	-0.0185	0.2472	1006.2356	0.106697	-378.679221	-378.671532	-378.670588	-378.71184	27.453	
O	-0.1123592905	 1.3398546317	 0.0414117246	-0.38293
N	 0.0251757341	-0.0502830734	 0.113598568	-0.213583
C	-1.0950260471	-0.6261923203	 0.015670462	 0.417921
C	-2.5355366802	-0.2292259672	-0.2217966414	-0.320829
C	-2.8577798824	-1.7366282818	-0.4624504486	-0.232537
C	-1.4047627026	-2.1219497162	 0.0117131994	-0.236733
C	-0.619520898	-2.9836010545	-0.8574064673	 0.287636
N	-0.015114159	-3.6706913509	-1.5634480079	-0.323872
H	 0.8016075926	 1.6403531873	 0.0989250869	 0.315152
H	-3.0173054817	 0.201122165	 0.661584403	 0.136509
H	-2.6978134547	 0.448810974	-1.0628196506	 0.143323
H	-3.6594682932	-2.1667766086	 0.1374183458	 0.125228
H	-3.0228830186	-1.9781903962	-1.5123923493	 0.140447
H	-1.4025705688	-2.5383335788	 1.0249503155	 0.144268
63.8642	106.991	181.4624	228.6017	310.1693	375.2799	444.1917	492.3832	518.9787	613.8715	689.0014	763.1591	798.2939	913.213	938.274	997.0645	1030.1586	1062.0152	1077.4451	1159.6026	1205.763	1222.5379	1243.2369	1272.5776	1326.018	1409.4458	1460.7584	1489.9322	1785.7243	2359.6996	3054.1325	3062.3759	3097.0109	3111.7747	3157.6741	3811.8324
ON=C1CCC1C#N	ON=C1CC[C@H]1C#N	
InChI=1S/C5H6N2O/c6-3-4-1-2-5(4)7-8/h4,8H,1-2H2	InChI=1S/C5H6N2O/c6-3-4-1-2-5(4)7-8/h4,8H,1-2H2/t4-/m0/s1
