16
gdb 4050	4.2919	1.40157	1.07116	3.6331	75.67	-0.1852	0.0046	0.1898	1059.599	0.131388	-379.908074	-379.900149	-379.899205	-379.940521	29.784	
N	 0.0469231214	 1.3487801228	 0.1267904382	-0.579445
C	-0.0405010106	-0.0164816883	 0.0348201507	 0.370426
C	-1.154699479	-0.7853978372	 0.0247187167	-0.293034
C	-0.7958085976	-2.1871733461	-0.0062796061	 0.409885
C	 0.7229726767	-2.306772787	-0.0199011328	-0.295883
C	 1.2256290599	-0.8422146575	 0.00880331	-0.311246
N	-1.5301417465	-3.2364823881	-0.0268475232	-0.27442
O	-2.9057212091	-2.8852214826	-0.0082461267	-0.410681
H	 0.8912566068	 1.7790731752	-0.2165962231	 0.253573
H	-0.7876042836	 1.8797858801	-0.0696478616	 0.257816
H	-2.1758516847	-0.4334697222	 0.0387831924	 0.09889
H	 1.0763186946	-2.8753525768	 0.844320184	 0.124591
H	 1.0637861528	-2.8394955801	-0.9115877989	 0.122976
H	 1.8358521562	-0.5919490393	-0.8689127175	 0.10898
H	 1.8451023541	-0.6260227693	 0.8874468226	 0.120304
H	-3.3266992313	-3.7499690836	-0.0236422347	 0.297269
54.4302	167.6907	201.7501	254.5688	349.4561	363.6403	400.7219	468.6841	501.2377	542.4919	593.6979	606.1171	695.3175	833.6627	859.0697	878.1423	907.4828	949.314	1006.2955	1027.9344	1093.095	1166.3977	1234.0069	1240.465	1251.8426	1289.7107	1328.2539	1393.2236	1410.5975	1474.7701	1496.3879	1641.1367	1686.6013	1727.3492	3020.3804	3051.2465	3066.5064	3103.5865	3240.4009	3578.3612	3684.8882	3831.6092
NC1=CC(CC1)=NO	NC1=CC(=NO)CC1	
InChI=1S/C5H8N2O/c6-4-1-2-5(3-4)7-8/h3,8H,1-2,6H2	InChI=1S/C5H8N2O/c6-4-1-2-5(3-4)7-8/h3,8H,1-2,6H2
