14
gdb 650	5.58407	4.58758	4.13652	1.6655	52.01	-0.2427	0.0923	0.335	437.149	0.122563	-270.411205	-270.406628	-270.405684	-270.438825	18.387	
C	-0.0619985189	 1.5953832464	 0.0722210648	-0.22124
C	 1.4621779633	 1.3567599728	-0.0007724973	 0.087836
C	 1.8004864379	 0.7002689522	 1.3552947504	-0.210846
C	 0.6370689227	-0.3449356684	 1.3617285881	-0.210845
C	 0.0121430321	 0.0540641891	 0.0072477808	 0.087836
O	 1.1940393804	 0.191638995	-0.8446720862	-0.298562
H	-0.4898828354	 2.0771031411	 0.9559317476	 0.090637
H	-0.4525114605	 2.0243824279	-0.8507370138	 0.11014
H	 2.1636864756	 2.0695705414	-0.434056597	 0.077237
H	 2.7869926469	 0.2330757461	 1.3352953219	 0.108079
H	 1.7628053037	 1.4039364295	 2.1912863862	 0.097205
H	 0.9961811139	-1.3757746965	 1.3451954454	 0.10808
H	-0.0534272125	-0.2277547732	 2.2013314953	 0.097205
H	-0.7741030993	-0.5697087434	-0.4178080664	 0.077237
296.6516	430.3301	551.4408	689.9993	822.8589	826.5638	832.3857	859.2068	876.9728	921.8306	949.2253	968.9613	1004.2159	1024.2491	1068.2646	1102.6506	1139.3743	1193.4386	1225.1075	1230.7847	1249.8913	1270.7927	1307.0766	1321.1079	1340.1188	1480.7737	1482.9808	1505.8935	3062.2501	3062.636	3071.8974	3109.8088	3122.0495	3124.9173	3127.0889	3145.1355
C1C2CCC1O2	C1[C@H]2CC[C@@H]1O2	
InChI=1S/C5H8O/c1-2-5-3-4(1)6-5/h4-5H,1-3H2	InChI=1S/C5H8O/c1-2-5-3-4(1)6-5/h4-5H,1-3H2/t4-,5+
