19
gdb 1557	4.79971	1.24702	1.06121	2.8143	68.84	-0.2444	-0.0176	0.2268	1136.6606	0.169183	-310.940345	-310.931255	-310.930311	-310.974739	31.221	
C	-0.0429281221	 1.5955468277	-0.0638747752	-0.381112
C	 0.0068036313	 0.0679223383	 0.0346064524	-0.174221
C	-1.3905667402	-0.5650386472	 0.0351800712	-0.175958
C	-1.396012439	-2.1110105617	 0.0411202174	-0.059357
C	-0.7879578698	-2.7132069632	 1.3194854624	-0.409008
C	-2.8299173454	-2.5835201522	-0.0957017833	 0.159545
O	-3.2863027112	-3.169302018	-1.0430093188	-0.250634
H	 0.9631381108	 2.0260423898	-0.0649635977	 0.114867
H	-0.5448109204	 1.9175367583	-0.9828733221	 0.117941
H	-0.5898901219	 2.0295977037	 0.7804643919	 0.115736
H	 0.5845450799	-0.3363982145	-0.8066493421	 0.100941
H	 0.5486355607	-0.2168526364	 0.9438059481	 0.101656
H	-1.9573850722	-0.1979808958	 0.9027437237	 0.096347
H	-1.9333912585	-0.2180420066	-0.8537491393	 0.107975
H	-0.8567377201	-2.4777725339	-0.8395463628	 0.092889
H	-1.3340776571	-2.3794785853	 2.2095173292	 0.119907
H	-0.8221688823	-3.8067703474	 1.2939631393	 0.12815
H	 0.2569899161	-2.4169765291	 1.4381963971	 0.129549
H	-3.4719299986	-2.3310932865	 0.7841028485	 0.064786
48.0772	70.3946	100.5489	170.8415	214.8947	251.5979	298.2714	329.3454	373.8859	396.1636	570.9928	744.6445	846.0092	873.0985	893.5961	931.0265	977.8677	1012.9926	1045.8227	1077.296	1140.587	1164.4717	1187.2679	1255.8284	1281.062	1327.9023	1338.2964	1359.6526	1393.0502	1406.2744	1414.6611	1429.1889	1481.4344	1493.4614	1497.7914	1500.3036	1504.1737	1511.2109	1835.7276	2829.8912	3005.5513	3024.6846	3031.3489	3034.6009	3038.6395	3053.4862	3067.1695	3099.3091	3101.5798	3104.5686	3122.0067
CCCC(C)C=O	CCC[C@@H](C)C=O	
InChI=1S/C6H12O/c1-3-4-6(2)5-7/h5-6H,3-4H2,1-2H3	InChI=1S/C6H12O/c1-3-4-6(2)5-7/h5-6H,3-4H2,1-2H3/t6-/m1/s1
