12
gdb 4702	6.8747	1.34189	1.12274	1.7961	67.71	-0.204	-0.0033	0.2007	966.2839	0.084717	-377.535726	-377.528833	-377.527889	-377.566584	26.053	
O	 0.0745306089	 1.3054231282	 0.1974380893	-0.423864
C	 0.0672945529	-0.0236950649	 0.0310755382	 0.450205
N	 0.0759492602	-0.670567185	-1.108870974	-0.347469
C	 0.0626010097	-1.9997341519	-0.7536147576	-0.18995
C	 0.0460011489	-2.152190538	 0.6140707908	 0.168383
N	 0.0492942264	-0.8398360159	 1.1077558734	-0.380177
C	 0.0287095027	-3.2813157716	 1.4479148773	 0.259876
C	 0.0137586988	-4.2438506135	 2.1740443691	-0.449443
H	 0.0875542661	 1.6897093787	-0.6886918397	 0.317888
H	 0.0656736883	-2.7833614061	-1.4945834196	 0.122453
H	 0.0398738683	-0.5635974525	 2.074972577	 0.279702
H	 0.0006519787	-5.0983613576	 2.803713536	 0.192396
140.0489	147.718	304.354	399.9473	418.5413	462.7873	485.5476	506.6943	550.6804	560.6557	662.693	683.3885	734.5625	739.807	852.5759	1007.7091	1049.8279	1162.2575	1200.7728	1245.0688	1299.054	1363.6047	1523.4171	1588.0949	1628.2248	2225.3565	3264.8509	3503.5186	3674.0826	3800.5196
OC1=NC=C(N1)C#C	Oc1ncc([nH]1)C#C	
InChI=1S/C5H4N2O/c1-2-4-3-6-5(8)7-4/h1,3H,(H2,6,7,8)	InChI=1S/C5H4N2O/c1-2-4-3-6-5(8)7-4/h1,3H,(H2,6,7,8)
