17
gdb 4337	3.69222	1.78347	1.22077	2.5058	78.27	-0.2434	-0.0195	0.2239	997.3598	0.143296	-326.800711	-326.792826	-326.791882	-326.833947	28.254	
C	 0.0485775797	 1.5252291581	 0.0209288468	-0.496154
C	 0.0024954099	 0.0188644573	 0.0012734933	 0.274172
C	 0.0706576659	-0.7032723911	-1.1894734918	-0.229845
C	 0.0255011565	-2.0967581248	-1.1766054994	 0.274172
C	 0.0972640818	-2.9059805479	-2.4461148841	-0.496154
C	-0.0896379085	-2.7116545288	 0.0728045816	-0.0653
N	-0.1572084022	-2.0528462051	 1.2300833865	-0.270809
C	-0.1111516364	-0.7211708478	 1.181025079	-0.0653
H	 0.9776277739	 1.9029220729	-0.4204237175	 0.133322
H	-0.778968706	 1.958368146	-0.5519255551	 0.133363
H	-0.0158321075	 1.9090895462	 1.0425843914	 0.128319
H	 0.1597968552	-0.1750462845	-2.1364956401	 0.089395
H	 1.0309937903	-2.7183733288	-2.9879419843	 0.13339
H	 0.0433350956	-3.9773713105	-2.2351859725	 0.128319
H	-0.7248799514	-2.6570698002	-3.1263213741	 0.133295
H	-0.1290456273	-3.7979591325	 0.1361523826	 0.097907
H	-0.1678435097	-0.2036127486	 2.1373426876	 0.097907
47.435	51.8042	195.9244	231.287	267.3291	392.8205	452.2899	518.4296	537.0152	548.1374	725.7764	743.0726	890.825	945.3659	957.6207	968.0555	998.6722	1036.0804	1049.2345	1064.0457	1072.0352	1189.1731	1198.3743	1292.6569	1296.1435	1353.3686	1413.9434	1416.0555	1458.3497	1463.5689	1485.1098	1485.5414	1499.9356	1508.8757	1614.4071	1640.2926	3031.2742	3031.9365	3085.4533	3085.5837	3114.3527	3114.6082	3136.5941	3140.5734	3150.2469
CC1=CC(C)=CN=C1	Cc1cc(C)cnc1	
InChI=1S/C7H9N/c1-6-3-7(2)5-8-4-6/h3-5H,1-2H3	InChI=1S/C7H9N/c1-6-3-7(2)5-8-4-6/h3-5H,1-2H3
