15
gdb 638	6.30735	2.76922	2.37269	2.731	52.97	-0.2355	0.0627	0.2983	593.3138	0.13137	-287.661454	-287.654667	-287.653723	-287.691623	24.483	
C	 0.1217157757	 1.5233105723	-0.0332223253	-0.404256
C	-0.0466369012	 0.0029204949	 0.018024394	 0.102063
O	 0.5189027463	-0.6200649284	-1.1328875218	-0.438325
C	 0.6392959254	-0.5932960603	 1.2344534488	 0.034416
C	 1.0938308797	-2.0016303881	 1.2452041047	-0.246408
N	 2.0764747412	-0.8982661773	 1.1909494069	-0.325096
H	 1.1820786621	 1.7904613925	-0.0710705518	 0.132995
H	-0.375265245	 1.9425535214	-0.9160419012	 0.103903
H	-0.3223880935	 1.9936698574	 0.8497824332	 0.122358
H	-1.1221055088	-0.2345820906	 0.0811474633	 0.073205
H	 0.1853231943	-0.1680475833	-1.9129725583	 0.287643
H	 0.310427205	-0.1468552291	 2.1712130537	 0.085437
H	 1.0881340043	-2.5653420995	 2.1739551821	 0.11038
H	 0.9354568535	-2.5860756207	 0.3447263091	 0.124543
H	 2.379593231	-0.8038867311	 0.2229089726	 0.237141
97.7461	224.378	236.3672	253.4145	285.4215	389.504	480.6576	627.6089	744.076	856.0209	874.3165	945.7786	965.4516	997.3144	1047.2392	1094.9157	1117.9687	1145.282	1158.3403	1203.878	1242.7133	1283.3721	1319.1763	1361.2858	1397.5282	1405.8129	1439.6281	1492.086	1499.472	1506.0578	2957.2267	3028.3248	3095.6158	3115.383	3116.9114	3125.3348	3208.3892	3486.1659	3838.4809
CC(O)C1CN1	C[C@@H](O)[C@H]1CN1	
InChI=1S/C4H9NO/c1-3(6)4-2-5-4/h3-6H,2H2,1H3	InChI=1S/C4H9NO/c1-3(6)4-2-5-4/h3-6H,2H2,1H3/t3-,4-/m1/s1
