13
gdb 4397	4.03682	1.97167	1.3357	5.1295	62.01	-0.2644	-0.0631	0.2012	855.8893	0.097557	-394.858933	-394.852141	-394.851197	-394.890448	24.213	
C	-0.0151353107	 1.5134593645	 0.0138982527	-0.492032
C	-0.004288216	 0.0164666662	-0.0548031519	 0.418659
N	-0.0444745009	-0.6003231974	-1.2063921693	-0.309303
C	-0.0290017124	-1.9679811585	-1.1207698726	 0.075901
N	 0.0199308037	-2.7215278678	-0.0621881346	-0.298591
C	 0.0633555681	-2.0958075028	 1.1732481056	 0.44161
O	 0.1109834818	-2.6404424339	 2.2484330065	-0.366212
N	 0.0479290545	-0.6730267646	 1.1055577584	-0.353858
H	 0.8853959645	 1.8841708335	 0.5151139597	 0.154657
H	-0.0574383303	 1.9161135128	-0.9970075062	 0.170386
H	-0.881444048	 1.8681434559	 0.5825244884	 0.154752
H	-0.0621623752	-2.4778902509	-2.082713116	 0.132785
H	 0.0790696408	-0.1966597369	 1.9977952693	 0.271247
74.9771	129.6313	191.964	312.3853	425.5367	509.147	556.8407	595.7098	621.6622	738.8953	809.4718	820.8449	908.4057	990.964	1026.8909	1036.7235	1069.7938	1098.9319	1234.7975	1298.481	1403.2909	1418.4964	1454.9515	1482.5587	1487.6304	1578.6213	1651.2001	1837.6763	3044.7164	3103.497	3148.7862	3170.898	3588.2374
CC1=NC=NC(=O)N1	Cc1ncnc(=O)[nH]1	
InChI=1S/C4H5N3O/c1-3-5-2-6-4(8)7-3/h2H,1H3,(H,5,6,7,8)	InChI=1S/C4H5N3O/c1-3-5-2-6-4(8)7-3/h2H,1H3,(H,5,6,7,8)
