21
gdb 1131	4.32241	1.38154	1.30878	1.3628	71.24	-0.2617	0.0712	0.3329	1057.3976	0.192564	-312.132858	-312.123425	-312.122481	-312.166682	34.288	
C	-1.4992305112	-0.2716375529	-0.1442252693	-0.391733
C	 0.0095591266	-0.1187605277	 0.0904492557	 0.046929
C	 0.4302169126	-0.8373703927	 1.3800561282	-0.386024
C	 0.7901794444	-0.6114053551	-1.1417548027	-0.155964
C	 2.2959478196	-0.3458818981	-1.1131904481	 0.121052
C	 2.9880762639	-0.838388497	-2.3851967093	-0.401255
O	 2.4613447773	 1.0633387086	-0.9524490335	-0.432519
H	-1.8217231697	 0.2697258535	-1.0400291717	 0.108398
H	-1.7733313517	-1.3257867935	-0.2766169819	 0.106155
H	-2.0731902324	 0.1138304552	 0.7051768388	 0.10662
H	 0.2331256253	 0.947836309	 0.2083282724	 0.093886
H	 0.2714856212	-1.9200823894	 1.2984392108	 0.104546
H	 1.4845367119	-0.6693184104	 1.6184747651	 0.114132
H	-0.1584498934	-0.4816635241	 2.2322663421	 0.10774
H	 0.6310119088	-1.6908504697	-1.2700499477	 0.084771
H	 0.383832505	-0.1242852984	-2.0378850455	 0.093172
H	 2.7378699567	-0.8716320825	-0.2510766337	 0.063536
H	 2.570461081	-0.3381368417	-3.2648494929	 0.122619
H	 4.0637359862	-0.6281335563	-2.3519034367	 0.100368
H	 2.8663109841	-1.9197298613	-2.5076917779	 0.114173
H	 3.4046931837	 1.2516202045	-0.9340380721	 0.279398
42.8044	116.113	169.2028	226.5909	239.0661	244.5849	281.8901	301.7716	348.0025	401.8628	428.1188	484.2441	493.2087	814.5234	838.4927	887.0567	928.6407	933.5553	966.1257	985.5334	1035.2205	1072.9989	1100.866	1162.5589	1177.4967	1194.8693	1240.448	1304.1725	1319.2336	1362.6544	1376.2148	1392.6553	1399.0691	1405.8253	1417.0668	1430.915	1470.1868	1488.39	1491.8356	1494.3465	1499.0076	1504.5871	1511.7661	2968.3388	3010.7899	3019.5096	3023.8858	3025.6905	3040.6855	3056.8691	3083.194	3090.3006	3092.1511	3096.1716	3104.0044	3110.7928	3819.8161
CC(C)CC(C)O	CC(C)C[C@@H](C)O	
InChI=1S/C6H14O/c1-5(2)4-6(3)7/h5-7H,4H2,1-3H3	InChI=1S/C6H14O/c1-5(2)4-6(3)7/h5-7H,4H2,1-3H3/t6-/m1/s1
