13
gdb 4269	3.93876	1.96551	1.32195	5.0586	62.3	-0.2476	-0.0415	0.2061	865.3742	0.096004	-398.656937	-398.650097	-398.649153	-398.68831	24.678	
C	-0.0199999437	 1.4863105945	 0.0832120855	-0.468084
C	-0.0063565462	-0.0021376083	-0.0543364557	 0.405672
N	-0.1007754534	-0.605299305	-1.1719611157	-0.335491
C	-0.0802548508	-2.025509732	-1.2231989599	 0.376113
O	-0.1688891657	-2.6128498216	-2.2775734551	-0.339007
C	 0.0538687598	-2.6948197223	 0.0764130891	-0.252025
C	 0.1456045526	-1.9617195252	 1.1899429926	 0.068673
O	 0.1197170015	-0.6041178462	 1.1711824182	-0.209879
H	 0.9041622551	 1.8306647478	 0.5581386572	 0.153174
H	-0.1208143426	 1.9377103918	-0.9021487164	 0.165272
H	-0.8509483301	 1.7993180267	 0.7233401817	 0.153173
H	 0.076665566	-3.7758548818	 0.1145688241	 0.132537
H	 0.2473041574	-2.3418170184	 2.1989937845	 0.149872
104.3502	119.0045	195.423	316.635	405.9305	500.3924	541.0733	560.323	604.674	748.3685	777.2318	864.105	889.5881	924.712	975.8895	1018.0483	1064.1775	1082.6811	1175.8992	1250.9043	1310.5363	1405.4914	1413.0069	1468.7086	1475.2626	1639.2718	1722.1431	1801.4145	3051.1724	3109.9139	3177.0202	3212.8949	3234.8498
CC1=NC(=O)C=CO1	Cc1nc(=O)cco1	
InChI=1S/C5H5NO2/c1-4-6-5(7)2-3-8-4/h2-3H,1H3	InChI=1S/C5H5NO2/c1-4-6-5(7)2-3-8-4/h2-3H,1H3
