21
gdb 2798	4.19264	1.83646	1.45534	0.1133	74.26	-0.2795	0.084	0.3635	935.4759	0.19505	-274.984793	-274.976627	-274.975682	-275.016901	30.649	
C	-0.080244852	 1.6007785209	 0.0625815656	-0.379489
C	 0.078985197	 0.0819810347	-0.0721607558	-0.19888
C	 0.7205950832	-0.5534289127	 1.1553939318	 0.069491
C	-0.055736154	-0.5775136874	 2.5029602838	-0.224873
C	 0.5367502814	-1.9851275041	 2.7777773686	-0.221026
C	 0.8859976212	-2.1091216429	 1.2643035291	-0.003946
C	-0.1166267281	-2.9464914774	 0.4728587948	-0.391036
H	 0.8902652764	 2.0893119457	 0.2054094528	 0.111731
H	-0.5437339173	 2.034803678	-0.8289348198	 0.109009
H	-0.7081120249	 1.8583796577	 0.9224547902	 0.117566
H	-0.9039808222	-0.3702097137	-0.2536079162	 0.091812
H	 0.6870187917	-0.1437085369	-0.9587894022	 0.090841
H	 1.7017710829	-0.0895913173	 1.3193133095	 0.063083
H	 0.1564641008	 0.2122698278	 3.2277981341	 0.091688
H	-1.1388337688	-0.6130930916	 2.3446971723	 0.095353
H	 1.4304559938	-1.9390731482	 3.4064028313	 0.095488
H	-0.1362960139	-2.742359998	 3.1903348411	 0.089585
H	 1.8975284218	-2.4693466495	 1.0501695939	 0.059402
H	-1.1511801797	-2.652699653	 0.6826096021	 0.112418
H	 0.0414585222	-2.8565284445	-0.607149522	 0.112183
H	-0.0190365917	-4.0055357876	 0.7362083152	 0.109599
95.2021	129.6547	169.6051	224.3093	256.2025	284.8393	357.733	401.6735	477.2294	663.6939	749.1353	794.5222	795.9739	885.6926	913.086	934.2477	945.9105	968.6258	1000.3806	1026.6627	1055.9109	1106.2617	1142.2617	1170.4355	1194.7218	1217.987	1254.1117	1264.1131	1284.3512	1285.0969	1297.442	1346.3453	1368.1177	1395.814	1409.3489	1412.9601	1482.7433	1485.1566	1497.9328	1499.5811	1500.0987	1503.6235	1508.8368	3013.7039	3014.1237	3026.3777	3028.9667	3040.5476	3046.2292	3052.026	3054.6809	3090.6037	3091.7644	3094.9606	3096.1824	3100.5769	3108.8701
CCC1CCC1C	CC[C@H]1CC[C@H]1C	
InChI=1S/C7H14/c1-3-7-5-4-6(7)2/h6-7H,3-5H2,1-2H3	InChI=1S/C7H14/c1-3-7-5-4-6(7)2/h6-7H,3-5H2,1-2H3/t6-,7+/m1/s1
