10
gdb 3940	7.84763	2.1922	1.71353	3.0015	43.75	-0.2207	0.0547	0.2753	644.8994	0.068384	-392.650949	-392.645218	-392.644274	-392.68019	21.373	
O	 0.0167183171	 1.3118271081	 0.1272674539	-0.422511
C	 0.0624613948	-0.0240427356	 0.0404538461	 0.470711
N	 0.1374348175	-0.7513935974	-1.0287940625	-0.326709
N	 0.1581934724	-2.0926301211	-0.5995953986	-0.326709
C	 0.093847512	-2.0660534541	 0.6938899264	 0.470711
O	 0.0845772313	-3.1041220217	 1.540355883	-0.422511
N	 0.0302151676	-0.7860171896	 1.1789543772	-0.373568
H	 0.05068966	 1.646128409	-0.7790501942	 0.321253
H	 0.1363314264	-3.9012779371	 0.9961246703	 0.321253
H	-0.026316819	-0.4807641506	 2.1355982584	 0.288081
219.0838	331.1373	380.5471	412.7235	435.1012	449.9254	493.4083	655.799	685.9837	738.9614	771.0451	1017.7611	1026.5207	1096.0653	1179.2036	1209.3198	1288.8362	1495.235	1573.3269	1634.9787	1664.7785	3674.315	3790.8642	3792.2029
OC1=NN=C(O)N1	Oc1nnc(O)[nH]1	
InChI=1S/C2H3N3O2/c6-1-3-2(7)5-4-1/h(H3,3,4,5,6,7)	InChI=1S/C2H3N3O2/c6-1-3-2(7)5-4-1/h(H3,3,4,5,6,7)
