16
gdb 4569	5.62859	1.50652	1.19841	1.8469	76.65	-0.2048	-0.0097	0.1951	989.2595	0.132847	-342.859894	-342.85253	-342.851586	-342.891471	28.005	
C	-0.000621731	 1.5231956395	-0.0029082833	-0.498866
C	-0.0038633273	 0.016588293	 0.0129256374	 0.256357
C	-0.0950883274	-0.7308066024	-1.1574936502	-0.06804
N	-0.0993011628	-2.065448278	-1.2194756246	-0.33349
C	-0.0197021536	-2.7444640547	-0.0723225242	 0.371246
N	-0.0896641473	-4.1249327655	-0.1667469301	-0.56628
C	 0.077562847	-2.0996142861	 1.1742556979	-0.17511
C	 0.0872205291	-0.7182888547	 1.202726621	-0.137552
H	 0.913607663	 1.9323666135	 0.4427570507	 0.126651
H	-0.0689188977	 1.9045195793	-1.0257289304	 0.124299
H	-0.8447462084	 1.9368626537	 0.5612554974	 0.127812
H	-0.164992274	-0.2185992595	-2.1163108944	 0.094876
H	 0.0968109538	-4.469349657	-1.0972905801	 0.252057
H	 0.3673316434	-4.64978616	 0.5625758371	 0.246857
H	 0.1376668317	-2.6799381559	 2.0891530423	 0.085073
H	 0.1640832414	-0.2002075451	 2.1550302834	 0.094112
74.0821	138.7032	295.7584	321.8122	367.8524	421.0998	427.1256	486.9333	516.2878	589.4291	659.4486	762.9461	780.1014	843.1172	873.5197	951.7091	977.7608	1000.2077	1038.4994	1068.0374	1088.3017	1166.3141	1247.8013	1318.6258	1338.8822	1353.6739	1416.9149	1428.5504	1484.7452	1499.4796	1533.0011	1608.4617	1631.3248	1660.5853	3024.5505	3074.6095	3107.5257	3132.7708	3160.7886	3182.8966	3572.7777	3686.0033
CC1=CN=C(N)C=C1	Cc1cnc(N)cc1	
InChI=1S/C6H8N2/c1-5-2-3-6(7)8-4-5/h2-4H,1H3,(H2,7,8)	InChI=1S/C6H8N2/c1-5-2-3-6(7)8-4-5/h2-4H,1H3,(H2,7,8)
