13
gdb 4603	5.72959	1.59545	1.25769	5.955	63.59	-0.2554	-0.0771	0.1782	905.8854	0.095785	-398.655453	-398.648567	-398.647622	-398.686957	24.77	
C	-0.0201995231	 1.5445509573	 0.0061502038	-0.498428
C	 0.0005562934	 0.0420324132	-0.0138439454	 0.154535
C	-0.051592678	-0.692936333	-1.1489124346	 0.043898
O	-0.032918898	-2.0229911203	-1.1548517966	-0.202404
C	 0.0449203433	-2.7669129633	 0.0662233661	 0.447389
O	 0.0554586784	-3.9547837902	-0.0376746568	-0.323914
N	 0.0998182467	-2.0393292057	 1.2383868281	-0.315072
C	 0.078236445	-0.7421094169	 1.1829700084	-0.001515
H	 0.881190131	 1.9507718635	 0.4778585554	 0.143518
H	-0.0772979113	 1.9489842018	-1.0078298828	 0.135258
H	-0.8807600818	 1.925406821	 0.5669261728	 0.143589
H	-0.112705809	-0.2751445941	-2.1501508442	 0.14455
H	 0.1243238734	-0.2219853133	 2.1424174458	 0.128596
67.6209	128.4898	282.7916	290.1317	378.0932	489.8443	500.367	511.1595	637.6257	724.0512	761.8775	802.7377	929.769	937.2855	1015.513	1027.1753	1050.4008	1078.2154	1238.8481	1287.3903	1385.3164	1422.5118	1435.6892	1480.7255	1496.5554	1565.3231	1709.5246	1880.7404	3034.0145	3089.3772	3108.9665	3117.5344	3178.8865
CC1=COC(=O)N=C1	Cc1coc(=O)nc1	
InChI=1S/C5H5NO2/c1-4-2-6-5(7)8-3-4/h2-3H,1H3	InChI=1S/C5H5NO2/c1-4-2-6-5(7)8-3-4/h2-3H,1H3
