15
gdb 2637	13.60257	0.82635	0.81607	0.5442	59.68	-0.2532	-0.037	0.2161	1304.5407	0.121977	-345.673444	-345.665157	-345.664213	-345.707696	26.768	
O	-0.6891737895	 0.6685684274	 0.5996428975	-0.231702
C	 0.1129978266	 0.9080336482	-0.2644996276	 0.158844
C	 1.2791242414	 1.8617592903	-0.1244763258	-0.270028
C	 1.2558762823	 2.9544072566	-1.2068310438	-0.205499
C	 2.490141827	 3.8701724833	-1.1447408914	-0.270023
C	 2.4015532777	 5.0003018091	-2.1467561668	 0.158834
O	 3.2231811457	 5.2368574876	-2.9932458223	-0.231701
H	 0.0375189337	 0.4229496991	-1.2667358398	 0.07428
H	 1.2609304153	 2.2910825304	 0.8815835885	 0.125632
H	 2.2023584097	 1.2733063412	-0.2281134003	 0.12489
H	 1.199935064	 2.4881315906	-2.1985144081	 0.120832
H	 0.3455376175	 3.5566051896	-1.0945520911	 0.120832
H	 2.5535734891	 4.3198926279	-0.1431940666	 0.124887
H	 3.4141726789	 3.3134088079	-1.3263826551	 0.125632
H	 1.4821131406	 5.6254012409	-2.0501269373	 0.074289
51.5327	52.1065	96.6695	109.3922	169.4022	320.7412	345.057	518.7396	519.7394	741.5095	789.6169	851.5525	926.6889	999.369	1023.1957	1040.5235	1117.5154	1142.6328	1189.5672	1245.0202	1278.2373	1314.7883	1332.9926	1382.8086	1429.3558	1431.9745	1461.9704	1465.1373	1499.4406	1838.2989	1840.2287	2851.3398	2852.5414	3012.9619	3013.2624	3027.1817	3059.7836	3096.495	3102.4279
O=CCCCC=O	O=CCCCC=O	
InChI=1S/C5H8O2/c6-4-2-1-3-5-7/h4-5H,1-3H2	InChI=1S/C5H8O2/c6-4-2-1-3-5-7/h4-5H,1-3H2
