15
gdb 2075	4.49447	2.55537	1.76819	2.8725	57.08	-0.2324	-0.0213	0.2111	704.6324	0.126251	-345.676243	-345.669923	-345.668979	-345.706559	23.54	
O	 0.034192198	-0.0626681839	 0.1200048725	-0.297639
C	-0.0181507245	 1.1345855236	-0.0284177067	 0.377078
C	-1.3254510935	 1.9124012637	-0.0845830274	-0.305506
C	-1.2582018862	 3.1042979415	-1.0553272042	-0.211415
C	 0.042411457	 3.8786589099	-0.8509511842	-0.067496
O	 1.1667532193	 3.0377687073	-1.0526523109	-0.240627
C	 1.2495987444	 1.9902129122	-0.1043857239	-0.17202
H	-2.1389859804	 1.219435266	-0.3125153684	 0.126468
H	-1.4978865888	 2.2887142378	 0.9352731188	 0.125935
H	-1.2888214334	 2.7443141812	-2.0898349416	 0.119367
H	-2.121094443	 3.7643245069	-0.9131747846	 0.104145
H	 0.1391367252	 4.6910218353	-1.5763677027	 0.114624
H	 0.0724421359	 4.321536877	 0.1604041296	 0.086529
H	 1.4416111669	 2.3927467286	 0.9086500027	 0.1049
H	 2.0919512432	 1.354646973	-0.3839961891	 0.135659
91.5603	186.5898	329.0805	403.7124	423.1163	472.1053	491.0804	649.6676	755.3496	806.2638	866.0642	925.8211	947.133	1004.0035	1039.725	1123.5169	1135.643	1175.9366	1206.1049	1259.621	1270.6391	1314.6683	1337.4551	1360.5255	1374.4129	1407.4132	1458.13	1466.3206	1484.1715	1498.5422	1825.9412	2930.6361	2953.6276	3007.1129	3038.7492	3082.6312	3091.8324	3104.3899	3118.332
O=C1CCCOC1	O=C1CCCOC1	
InChI=1S/C5H8O2/c6-5-2-1-3-7-4-5/h1-4H2	InChI=1S/C5H8O2/c6-5-2-1-3-7-4-5/h1-4H2
