14
gdb 4975	3.3088	2.4161	1.40851	0.9935	67.37	-0.2395	-0.0392	0.2003	831.5746	0.108938	-378.789631	-378.782876	-378.781932	-378.820541	25.351	
C	-0.0463367753	 1.532319098	-0.0434076772	-0.475436
C	-0.0073820012	 0.0322483636	-0.0286645697	 0.251101
N	-0.0874422085	-0.6373449904	-1.1712874044	-0.285275
C	-0.0493045864	-1.9779973904	-1.1217874945	-0.039223
C	 0.0695065072	-2.656575958	 0.0780048573	-0.027144
N	 0.1520451684	-2.0031088179	 1.2460033543	-0.336274
C	 0.1137344047	-0.6851137648	 1.1848558	 0.375048
O	 0.1941564315	 0.0121770298	 2.336636988	-0.408656
H	 0.8659056182	 1.953894738	 0.3930214693	 0.139406
H	-0.1506301216	 1.8834040859	-1.0708107045	 0.139032
H	-0.8814392792	 1.9102411483	 0.5565047431	 0.1394
H	-0.1160250901	-2.5094226684	-2.0660296818	 0.111535
H	 0.100110797	-3.741611573	 0.1178791794	 0.116526
H	 0.2705747153	-0.6420881706	 3.0455733208	 0.299961
121.797	151.3507	282.6861	296.1063	460.6978	470.3624	542.0408	552.9934	593.8706	605.4828	756.0978	803.3374	874.1205	909.6987	971.1274	990.9966	1059.2833	1099.3053	1145.4704	1242.3665	1284.1747	1304.0005	1348.9006	1407.2313	1464.8289	1476.9714	1484.1174	1499.4419	1600.1061	1631.3455	3037.9743	3090.0209	3147.6402	3165.5545	3185.5296	3761.2755
CC1=NC=CN=C1O	Cc1nccnc1O	
InChI=1S/C5H6N2O/c1-4-5(8)7-3-2-6-4/h2-3H,1H3,(H,7,8)	InChI=1S/C5H6N2O/c1-4-5(8)7-3-2-6-4/h2-3H,1H3,(H,7,8)
