15
gdb 3136	5.68561	1.97138	1.73841	1.5683	56.71	-0.237	0.0655	0.3025	737.63	0.124966	-345.597078	-345.590396	-345.589451	-345.627749	24.762	
O	 0.171093908	 1.38312271	 0.1512462114	-0.412082
C	 0.0780615368	-0.0110811889	-0.1168205657	-0.174502
C	-1.3322782745	-0.5114180554	-0.0843150232	 0.24868
C	-2.0493197866	-0.9466268109	 1.1883224583	-0.352213
C	-1.9288187883	-1.8965736376	 0.0386084185	 0.055381
O	-2.936385156	-1.641711305	-0.9397366907	-0.286477
C	-2.3824404594	-0.3170160985	-1.1773552643	-0.121985
H	-0.249517068	 1.538666179	 1.0036959499	 0.282811
H	 0.508389501	-0.1426712086	-1.1159366921	 0.113281
H	 0.6943961154	-0.5982393419	 0.5833521729	 0.087842
H	-1.3910526138	-1.1467114778	 2.0295841377	 0.113731
H	-3.0261911715	-0.5469473721	 1.4470344787	 0.118559
H	-1.4907100948	-2.8876118484	 0.0768026163	 0.108353
H	-3.1256053001	 0.4772137394	-1.0445313195	 0.108221
H	-1.9503132082	-0.2571319034	-2.1831728383	 0.110399
88.6771	167.5438	288.2804	312.4433	368.4748	410.785	458.3009	697.7221	758.1246	860.2383	915.7739	923.2864	941.8423	985.8864	998.5606	1023.1961	1052.8069	1064.3688	1079.6675	1104.6195	1153.6556	1190.9794	1259.9795	1301.3255	1310.887	1372.7366	1404.5767	1429.9829	1479.3471	1499.6537	1516.5447	2972.326	3024.3272	3063.9717	3075.8256	3109.2252	3178.338	3201.5906	3807.6819
OCC12CC1OC2	OC[C@]12C[C@H]1OC2	
InChI=1S/C5H8O2/c6-2-5-1-4(5)7-3-5/h4,6H,1-3H2	InChI=1S/C5H8O2/c6-2-5-1-4(5)7-3-5/h4,6H,1-3H2/t4-,5+/m1/s1
