11
gdb 1203	8.52608	1.08388	1.00273	2.9665	59.6	-0.2792	-0.0833	0.1958	1080.1312	0.075004	-343.243883	-343.236061	-343.235116	-343.277095	24.682	
C	 0.1660897691	 1.4882135685	-0.009594634	-0.483931
C	-0.2401733398	 0.0336512914	 0.0390581436	 0.258822
O	-0.6281819987	-0.5290365204	 1.0377118948	-0.259739
C	-0.1370075696	-0.6887212533	-1.2227951841	 0.091916
C	-0.0457635189	-1.3027221498	-2.2618076419	-0.0011
C	 0.0275382396	-2.0324810654	-3.505769536	 0.027404
O	 1.0387196577	-2.5344350868	-3.9345890426	-0.214529
H	 1.209248838	 1.575141887	-0.3324605784	 0.158611
H	-0.4431687002	 2.0259533285	-0.7441342774	 0.153993
H	 0.0412227786	 1.932237214	 0.9788655504	 0.153641
H	-0.9371312858	-2.0949711037	-4.0474872344	 0.114912
54.9194	97.1966	107.9229	123.7112	265.3268	274.6277	385.4155	551.1148	596.8555	631.6935	748.8892	959.7461	1016.9662	1035.6994	1044.2198	1228.1344	1384.0686	1417.1563	1458.6868	1466.1051	1771.2087	1777.4522	2294.3931	2932.2455	3039.8498	3104.5211	3154.8924
CC(=O)C#CC=O	CC(=O)C#CC=O	
InChI=1S/C5H4O2/c1-5(7)3-2-4-6/h4H,1H3	InChI=1S/C5H4O2/c1-5(7)3-2-4-6/h4H,1H3
