10
gdb 2622	16.37067	0.90804	0.87302	3.1893	61.99	-0.2805	-0.0635	0.217	1170.3131	0.064939	-322.1691	-322.161967	-322.161023	-322.201251	23.063	
O	-0.4465241485	 0.6086770052	 0.8633752871	-0.212078
C	 0.0192074415	 1.0374639376	-0.1532284647	 0.169023
C	 1.3332254903	 1.8386908245	-0.1907102495	-0.436422
C	 1.3335605513	 2.8755095919	-1.2027624262	 0.089733
C	 1.2882183554	 3.7300636202	-2.055073734	 0.029933
C	 1.249229836	 4.6981027626	-3.0172211996	 0.219693
N	 1.2156982024	 5.5203515116	-3.8368728275	-0.329882
H	-0.4493935655	 0.8678096808	-1.1447535988	 0.112672
H	 1.5177770599	 2.2447442296	 0.8091303617	 0.178251
H	 2.1378786571	 1.1174654161	-0.3996858885	 0.179076
49.6279	94.9571	147.7316	224.5694	354.4999	446.8488	465.1819	574.328	579.1491	691.9249	778.5418	1012.9488	1038.2473	1172.9786	1206.2498	1283.4897	1412.5722	1431.27	1846.4244	2269.3671	2403.9047	2922.8411	3011.0619	3086.3545
O=CCC#CC#N	O=CCC#CC#N	
InChI=1S/C5H3NO/c6-4-2-1-3-5-7/h5H,3H2	InChI=1S/C5H3NO/c6-4-2-1-3-5-7/h5H,3H2
