19
gdb 2800	4.25754	1.91117	1.47764	1.7896	67.17	-0.2393	0.0836	0.3229	891.4108	0.171016	-310.909123	-310.90103	-310.900085	-310.941859	29.013	
C	 0.0783022128	 1.591234801	 0.0888760224	-0.384706
C	 0.0599546642	 0.0587499793	 0.0761651488	-0.189323
C	 0.6419885249	-0.519134908	-1.2111296581	-0.032851
C	 2.1824887077	-0.4968279277	-1.3328473603	-0.077731
O	 2.2599196883	-1.9331533167	-1.2575861049	-0.292285
C	 0.8187063152	-2.0622151779	-1.3219129532	 0.143558
C	 0.2722766781	-2.9923489089	-0.2569995865	-0.40215
H	 1.0977938929	 1.9790508798	-0.0147573802	 0.118852
H	-0.5156692811	 2.0001784332	-0.7360653828	 0.115329
H	-0.3316951209	 1.985705286	 1.0234976158	 0.114685
H	 0.6223585239	-0.319303833	 0.9387078254	 0.103259
H	-0.9712967651	-0.2948886623	 0.2017720112	 0.097311
H	 0.1232197624	-0.0849843634	-2.0714139601	 0.069072
H	 2.5734052783	-0.1133245624	-2.2848135301	 0.093809
H	 2.7259820276	-0.0145057869	-0.5096402692	 0.096125
H	 0.5193738478	-2.4334601457	-2.3139784376	 0.066928
H	 0.5367611741	-2.6568455921	 0.7489659911	 0.120288
H	-0.8183529064	-3.0660171787	-0.3288056424	 0.113762
H	 0.6881421053	-3.9949643758	-0.3993792592	 0.126069
48.4188	104.7592	176.7525	221.3267	229.7	286.1099	376.1688	413.9597	501.9736	740.1797	775.8274	817.6904	875.816	899.8064	963.5143	969.7118	1020.9176	1032.2075	1058.568	1094.0964	1136.9079	1158.7201	1166.132	1204.6424	1252.8383	1282.2143	1303.4038	1335.9009	1364.0471	1388.1076	1397.7873	1408.1929	1413.4929	1480.5603	1487.3141	1498.2218	1501.0045	1506.4736	1526.4404	2977.1214	3000.5911	3021.2492	3029.7743	3036.765	3038.6941	3049.2754	3065.2968	3096.518	3104.3115	3104.6845	3123.0819
CCC1COC1C	CC[C@H]1CO[C@H]1C	
InChI=1S/C6H12O/c1-3-6-4-7-5(6)2/h5-6H,3-4H2,1-2H3	InChI=1S/C6H12O/c1-3-6-4-7-5(6)2/h5-6H,3-4H2,1-2H3/t5-,6-/m0/s1
