16
gdb 2696	14.29715	0.90043	0.86537	4.6235	62.88	-0.2818	0.0112	0.293	1291.5372	0.135191	-325.780603	-325.772191	-325.771247	-325.814119	27.975	
C	-0.0361098676	 1.4954940438	-0.0283673348	-0.385447
C	 0.0208109776	-0.0329518377	 0.0337453381	-0.186392
C	 0.7570360282	-0.5323829589	 1.267280868	-0.032638
O	 0.7623194715	-1.9523154758	 1.2445968296	-0.237665
C	 1.4242843557	-2.5034846272	 2.3516452646	-0.184385
C	 1.3897964253	-3.9666641545	 2.2594578034	 0.263996
N	 1.3797068046	-5.1201699249	 2.2156974436	-0.292625
H	 0.9678454992	 1.9328976938	-0.0584151026	 0.119152
H	-0.5693434822	 1.8289210125	-0.9227359729	 0.124092
H	-0.554596101	 1.9127845049	 0.8417977412	 0.119154
H	-0.9911175205	-0.4528719755	 0.0396523543	 0.115426
H	 0.521362163	-0.4329031764	-0.8549922926	 0.115429
H	 1.7926719075	-0.1518802922	 1.2828476508	 0.092799
H	 0.2646701417	-0.1719859868	 2.1866612946	 0.092791
H	 2.4780758157	-2.1812369733	 2.3999379912	 0.138153
H	 0.9522655513	-2.2020980517	 3.3019150034	 0.138158
49.9767	103.4682	104.7033	140.0834	226.2456	241.5413	384.7922	386.5951	399.372	584.2806	765.0517	900.7574	903.6036	960.639	1013.6153	1035.4468	1056.9618	1151.1725	1156.1034	1191.4945	1254.0796	1269.5387	1316.1171	1331.8927	1390.4293	1415.0335	1448.3489	1490.3898	1495.6754	1502.3591	1507.8673	1528.0865	2374.1967	2951.6721	2967.1276	2980.9226	2989.3715	3034.2155	3044.21	3077.3712	3103.7449	3113.5379
CCCOCC#N	CCCOCC#N	
InChI=1S/C5H9NO/c1-2-4-7-5-3-6/h2,4-5H2,1H3	InChI=1S/C5H9NO/c1-2-4-7-5-3-6/h2,4-5H2,1H3
