10
gdb 3634	9.99253	1.97623	1.64993	4.0454	58.04	-0.2523	-0.0389	0.2135	676.362	0.068171	-318.323005	-318.317441	-318.316496	-318.352268	20.287	
C	 0.0749590976	-1.2135105246	-0.0050219609	-0.455734
C	 0.0001504996	-0.0121261236	 0.0026947439	 0.31184
C	-0.0779488478	 1.3920969912	 0.0115982074	 0.247656
C	-1.1366471871	 2.2833434028	 0.0304413584	-0.196842
N	-0.6483522009	 3.5492836487	 0.0311546304	-0.169275
N	 0.6552851057	 3.5073143659	 0.0138955625	-0.10119
N	 1.0095793266	 2.2148187112	 0.0020144004	-0.271413
H	 0.1319170927	-2.2742590213	-0.0117147517	 0.209641
H	-2.1931631056	 2.0734448013	 0.0430700031	 0.136102
H	 1.9846339193	 1.9585227384	-0.0121602435	 0.289216
166.9063	175.0996	461.0759	515.6497	583.291	594.3716	597.2057	682.2939	703.4319	724.6014	861.5377	991.0188	1065.9361	1090.0146	1143.2805	1221.0752	1324.8486	1360.3906	1406.0598	1580.1884	2239.9949	3283.225	3499.4062	3652.6165
C#CC1=CN=NN1	C#Cc1cnn[nH]1	
InChI=1S/C4H3N3/c1-2-4-3-5-7-6-4/h1,3H,(H,5,6,7)	InChI=1S/C4H3N3/c1-2-4-3-5-7-6-4/h1,3H,(H,5,6,7)
