14
gdb 3695	7.43277	1.99147	1.59071	3.1251	60.16	-0.2023	0.0433	0.2457	759.8392	0.115209	-320.782523	-320.775492	-320.774547	-320.813287	25.486	
C	 0.015005352	 1.4786602513	-0.0488556064	-0.490118
C	-0.0088721491	-0.0144896854	 0.0451850751	 0.364771
N	-0.0847269653	-0.7551090609	-1.0542045428	-0.295545
N	-0.0758195393	-2.0382820781	-0.5969989572	-0.245565
C	 0.0058265396	-2.1187157724	 0.7540700719	 0.396221
N	-0.0427635752	-3.3502253387	 1.4137533586	-0.605328
C	 0.0541701824	-0.8173860411	 1.2141280578	-0.361307
H	 0.9368865604	 1.8938687421	 0.3738180202	 0.122962
H	-0.052215778	 1.7843795436	-1.0951114587	 0.136773
H	-0.8219604185	 1.9273063217	 0.4978337858	 0.124053
H	-0.206349849	-2.7933191727	-1.2475374638	 0.264491
H	 0.6178519316	-4.0266529551	 1.0485110969	 0.248739
H	 0.1111133298	-3.2447876444	 2.4075599861	 0.255011
H	 0.1399329387	-0.4959369097	 2.2399734065	 0.084841
105.9705	163.6468	197.1512	279.6241	343.6071	412.3719	451.8284	600.7419	666.9802	687.0635	742.3485	763.4109	788.182	987.7824	1004.9569	1051.356	1064.8376	1106.7073	1158.9071	1189.4598	1331.6242	1404.8304	1436.0182	1483.3023	1485.2411	1498.5296	1548.5801	1621.7621	1659.8496	3032.0533	3081.9435	3130.4807	3255.3781	3528.1251	3626.107	3679.9424
CC1=NNC(N)=C1	Cc1n[nH]c(N)c1	
InChI=1S/C4H7N3/c1-3-2-4(5)7-6-3/h2H,1H3,(H3,5,6,7)	InChI=1S/C4H7N3/c1-3-2-4(5)7-6-3/h2H,1H3,(H3,5,6,7)
