15
gdb 2975	4.37856	2.11111	1.5216	4.2945	61.87	-0.2583	0.0265	0.2848	799.3726	0.12467	-304.67974	-304.672433	-304.671489	-304.711129	26.125	
C	 0.0876474215	 1.4381052738	 0.0571880986	-0.389557
C	-0.0890487771	-0.0852736789	 0.0007275718	-0.106816
C	-1.5169195151	-0.4462054612	-0.0279844649	 0.299636
N	-2.6371122958	-0.7278731337	-0.0278960166	-0.320859
N	 0.5620852392	-0.624311628	-1.1940169231	-0.06005
C	 1.9738935028	-0.9717293538	-1.0353230507	-0.225336
C	 0.9385722412	-2.0352607477	-1.1449099296	-0.216011
H	 1.1526180196	 1.6777527832	 0.1156081106	 0.128064
H	-0.3261849908	 1.8968949864	-0.8431282903	 0.150218
H	-0.4147712182	 1.8536109722	 0.9338589679	 0.136686
H	 0.3274754461	-0.5283665247	 0.924655164	 0.104922
H	 2.6123371006	-0.7278801234	-1.8786552243	 0.128653
H	 2.4307876782	-0.8222973009	-0.0580962509	 0.115966
H	 0.7021877812	-2.5959996775	-0.2424771954	 0.123029
H	 0.8028361568	-2.5846683958	-2.0708622471	 0.131455
85.9601	157.6919	214.8963	232.7943	260.5039	364.6484	439.2602	535.3951	577.5342	744.7328	826.5473	856.884	910.0691	972.3695	1022.3385	1054.9574	1108.9686	1115.7306	1123.3726	1127.7286	1176.4622	1199.0968	1311.9214	1333.9473	1354.1349	1407.37	1487.2957	1491.7406	1495.5768	1518.9945	2363.7585	2925.7737	3054.5979	3097.583	3106.6778	3131.7595	3144.0031	3187.9505	3202.7111
CC(C#N)N1CC1	C[C@@H](C#N)N1CC1	
InChI=1S/C5H8N2/c1-5(4-6)7-2-3-7/h5H,2-3H2,1H3	InChI=1S/C5H8N2/c1-5(4-6)7-2-3-7/h5H,2-3H2,1H3/t5-/m0/s1
