12
gdb 718	6.29327	5.52309	4.39133	1.7566	48.29	-0.2298	0.084	0.3137	384.9781	0.097855	-269.154939	-269.150758	-269.149814	-269.182103	16.78	
C	-0.0075904581	 1.5039294336	 0.1277979097	-0.225514
C	 1.5107427782	 1.4358321876	-0.0383709599	-0.112589
C	 1.8997498955	 0.0798238	 0.5791798732	 0.102982
O	 0.7218286018	-0.5156656641	 1.1215094441	-0.292969
C	 0.0377767989	-0.0336237693	-0.0710117449	 0.076269
C	 1.4129431021	 0.1295620248	-0.8263531039	-0.138179
H	-0.4297591405	 1.8590810447	 1.0731128402	 0.101247
H	-0.4780332996	 2.0074237483	-0.7206015871	 0.103719
H	 2.2192363148	 2.2438179614	-0.166877349	 0.091473
H	 2.8609041957	-0.1542250046	 1.0166724321	 0.107956
H	-0.8284745042	-0.630939492	-0.346469361	 0.087214
H	 1.8088964454	-0.1986867404	-1.7767521136	 0.098391
438.6724	538.2603	757.3822	760.284	775.5231	786.1565	821.6979	887.3533	922.4666	955.6689	984.4183	1002.0143	1030.5517	1043.552	1066.2833	1086.3789	1152.6649	1163.5765	1174.6778	1224.3717	1270.2014	1314.8893	1371.1481	1485.0934	3049.3718	3112.8657	3147.5858	3200.3856	3207.0044	3223.0343
C1C2C3OC1C23	C1[C@H]2[C@H]3O[C@@H]1[C@@H]23	
InChI=1S/C5H6O/c1-2-4-3(1)6-5(2)4/h2-5H,1H2	InChI=1S/C5H6O/c1-2-4-3(1)6-5(2)4/h2-5H,1H2/t2-,3+,4-,5-/m1/s1
