15
gdb 2281	8.38362	1.31487	1.20754	0.9463	57.62	-0.2536	-0.0297	0.2239	940.029	0.124043	-345.635068	-345.627732	-345.626788	-345.668001	24.457	
O	-0.1796996677	-0.0228877918	-0.1467616599	-0.232906
C	 0.0138360391	 1.1612284064	-0.0522863775	 0.160276
C	 1.3623011137	 1.8324730171	-0.198487505	-0.30106
C	 1.3550912602	 2.9031210381	-1.2916107911	-0.032371
C	 0.6071558348	 4.2329077005	-1.0250692762	-0.080464
O	 1.796431279	 5.0042411573	-1.2788976848	-0.267232
C	 2.5989939911	 3.8139101013	-1.4063178211	-0.086184
H	-0.8305575316	 1.8616563227	 0.1505024815	 0.076165
H	 1.6098141299	 2.305089861	 0.7634244854	 0.121772
H	 2.1110145616	 1.0610383779	-0.4031181551	 0.126209
H	 1.0794797585	 2.4565314841	-2.250515814	 0.097775
H	-0.2055991826	 4.4879316663	-1.7145996193	 0.110397
H	 0.2494108135	 4.3609755031	 0.0066890052	 0.097688
H	 3.3167066093	 3.7112865544	-0.5804273435	 0.100567
H	 3.1438058911	 3.7822230716	-2.3567214946	 0.109368
47.6394	72.6022	81.9006	200.9495	346.2655	390.6024	496.7297	726.1304	821.8857	874.4561	897.6599	955.803	982.8825	990.1139	1043.1857	1101.8753	1115.4499	1148.2682	1164.4752	1169.4325	1243.1591	1268.333	1305.5631	1313.3188	1362.018	1396.1734	1432.6398	1462.7687	1512.9077	1537.8801	1836.6605	2853.9532	2994.7731	3005.0329	3011.9556	3052.3355	3056.3397	3079.0689	3095.3142
O=CCC1COC1	O=CCC1COC1	
InChI=1S/C5H8O2/c6-2-1-5-3-7-4-5/h2,5H,1,3-4H2	InChI=1S/C5H8O2/c6-2-1-5-3-7-4-5/h2,5H,1,3-4H2
