11
gdb 3286	5.99381	2.68968	2.19254	4.0174	46.31	-0.2661	-0.0177	0.2484	576.5072	0.079194	-380.374978	-380.369729	-380.368784	-380.404115	19.082	
O	-0.1131842375	 0.1717638282	 0.4084515997	-0.305902
C	 0.0016123561	 1.2920241187	 0.0417005512	 0.452566
O	-1.002465209	 2.1595985627	-0.3636439747	-0.255105
C	-0.057520582	 3.2316754297	-0.6435725377	 0.060832
C	 0.2463964737	 4.0846557186	 0.5927631778	-0.096384
O	 1.2873840061	 3.1606814172	 1.0133983229	-0.281847
C	 1.1075541451	 2.3500984938	-0.1636675948	-0.071268
H	-0.2079906282	 3.6669889964	-1.6275921105	 0.118969
H	 0.668977019	 5.0709235246	 0.3720475172	 0.123389
H	-0.5675186936	 4.1706515348	 1.3185744987	 0.134197
H	 2.0324611904	 2.0853812353	-0.6754151997	 0.120552
150.7533	244.5433	388.0619	470.5	676.9862	748.3745	812.8666	843.6182	886.0872	944.4078	972.4399	1007.8228	1032.5494	1064.2505	1097.9976	1161.4325	1205.6902	1224.7276	1275.6674	1319.7419	1349.5328	1501.2019	1949.658	3041.5736	3103.361	3126.0567	3162.1843
O=C1OC2COC12	O=C1O[C@H]2CO[C@@H]12	
InChI=1S/C4H4O3/c5-4-3-2(7-4)1-6-3/h2-3H,1H2	InChI=1S/C4H4O3/c5-4-3-2(7-4)1-6-3/h2-3H,1H2/t2-,3+/m0/s1
