14
gdb 1495	6.29547	1.48711	1.22126	0.8369	62.87	-0.2644	-0.0258	0.2386	949.7339	0.111582	-324.549529	-324.54171	-324.540766	-324.581766	27.313	
C	 0.0404228819	 1.5104534824	 0.1129781014	-0.391693
C	 0.0009681402	-0.0011906767	-0.0009752995	-0.0367
O	 0.68568545	-0.5361357132	 1.1462849181	-0.232585
C	 0.7560507002	-1.8748130561	 1.2250410898	 0.258674
N	 0.2496920318	-2.6397345031	 0.3410441514	-0.53996
C	 1.4582571244	-2.3037935508	 2.4054062211	 0.279303
C	 2.0366279905	-2.7146682006	 3.3758671081	-0.410385
H	 1.0715161966	 1.8745601919	 0.1283264454	 0.130269
H	-0.4715518313	 1.9589471021	-0.743532336	 0.121861
H	-0.4566690659	 1.8466912052	 1.0272019337	 0.130266
H	-1.0230274113	-0.3888271653	-0.0160630453	 0.123463
H	 0.4953471416	-0.361099911	-0.9093370459	 0.123446
H	 0.4093152048	-3.6149951314	 0.5825728627	 0.234851
H	 2.5485776064	-3.0737966634	 4.234854385	 0.209191
75.6635	117.1973	133.2565	246.6014	258.5652	309.684	381.5786	524.9008	587.3659	658.5856	658.8086	733.1572	806.6301	853.5784	876.3231	928.5936	1047.7298	1118.858	1136.6791	1181.4866	1288.2335	1355.8999	1404.0335	1429.4427	1485.2935	1495.7892	1518.7767	1679.1202	2236.1589	3046.5443	3047.5578	3084.4227	3121.1364	3125.8463	3499.7158	3525.8202
CCOC(=N)C#C	CCO[C]([NH])C#C	
InChI=1S/C5H7NO/c1-3-5(6)7-4-2/h1,6H,4H2,2H3	InChI=1S/C5H7NO/c1-3-5(6)7-4-2/h1,6H,4H2,2H3
