14
gdb 4707	6.82404	1.27982	1.085	6.437	71.35	-0.2365	-0.0551	0.1815	1036.6593	0.107913	-378.776984	-378.769658	-378.768714	-378.808829	25.973	
C	-0.0029954427	 1.5015083679	 0.1008329016	-0.509756
C	-0.0034045429	 0.0175154289	-0.0378020528	 0.300031
C	-0.0600965041	-0.8108272878	-1.1470749036	-0.147038
N	-0.0349895482	-2.1216087737	-0.7899965779	-0.269897
C	 0.036888292	-2.1289511315	 0.5314916537	 0.247929
N	 0.0578897116	-0.8416639138	 1.0226346181	-0.326803
C	 0.0911575557	-3.276110507	 1.4350448755	 0.088428
O	 0.0783901764	-4.4370023806	 1.1052594681	-0.254279
H	 0.9041433186	 1.8665993544	 0.5965559884	 0.140637
H	-0.0511916561	 1.9648043884	-0.8868504827	 0.151479
H	-0.8627988098	 1.8594213548	 0.6793286523	 0.140903
H	-0.1175423382	-0.505417339	-2.1820132485	 0.116431
H	 0.1095851247	-0.5797514642	 1.9945637521	 0.26996
H	 0.148518263	-2.979251087	 2.5109277357	 0.051974
106.962	111.9461	181.68	244.8613	305.3064	328.2287	482.0173	572.8437	659.3184	676.5425	706.7815	798.23	864.1179	993.6784	1011.0472	1013.4358	1049.3011	1062.382	1176.5072	1213.5784	1293.4334	1393.5018	1405.2106	1421.1168	1464.8493	1480.9071	1491.0249	1501.54	1604.9702	1807.3084	2827.4638	3027.6496	3077.2287	3129.755	3240.3109	3643.3405
CC1=CN=C(N1)C=O	Cc1cnc([nH]1)C=O	
InChI=1S/C5H6N2O/c1-4-2-6-5(3-8)7-4/h2-3H,1H3,(H,6,7)	InChI=1S/C5H6N2O/c1-4-2-6-5(3-8)7-4/h2-3H,1H3,(H,6,7)
