17
gdb 1729	5.44239	1.43466	1.26723	0.0587	74.05	-0.225	0.0633	0.2883	1008.4572	0.146569	-272.55467	-272.546237	-272.545293	-272.588649	29.648	
C	-0.0243308611	 1.4545610312	-0.018526169	-0.499408
C	-0.0107235173	-0.0015187053	-0.0066280393	 0.063748
C	-0.0047496702	-1.2068192208	 0.0065174699	 0.013385
C	 0.0326860824	-2.6474454332	 0.0031169786	 0.192987
C	 1.2146804855	-3.2608014444	-0.7336777402	-0.455523
C	-0.4951070038	-3.3698872187	 1.2345251651	-0.287517
C	-1.2967049455	-3.3877134574	-0.0365905042	-0.287516
H	 0.8362337828	 1.8537379495	-0.5671585999	 0.145961
H	-0.929212457	 1.8444168626	-0.4985851507	 0.144273
H	 0.0143954746	 1.8654547084	 0.9968166473	 0.144272
H	 2.161710101	-2.9391635065	-0.2888636848	 0.124176
H	 1.1716604263	-4.3537495703	-0.6912209962	 0.109747
H	 1.2174571465	-2.9601615017	-1.7861906996	 0.124176
H	 0.0203043021	-4.2769775567	 1.5322174559	 0.112656
H	-0.8534066359	-2.7624641128	 2.0569065324	 0.120964
H	-2.2008224998	-2.7924292297	-0.0797266859	 0.120964
H	-1.3316716806	-4.3070428341	-0.6116498696	 0.112656
15.4378	106.2164	132.3482	223.6039	293.9741	298.144	316.5223	348.6048	529.0055	540.905	583.7245	785.9892	838.8352	841.4974	939.9571	951.6043	1043.7124	1051.458	1053.9696	1072.0552	1076.0885	1085.6944	1116.3663	1193.4313	1293.2944	1352.419	1413.1756	1415.8259	1464.4904	1478.2113	1480.3709	1486.6171	1496.1457	1503.3295	2365.6308	3022.207	3031.8486	3079.9609	3082.6961	3102.5274	3104.7636	3133.2877	3138.0211	3218.8542	3233.4159
CC#CC1(C)CC1	CC#CC1(C)CC1	
InChI=1S/C7H10/c1-3-4-7(2)5-6-7/h5-6H2,1-2H3	InChI=1S/C7H10/c1-3-4-7(2)5-6-7/h5-6H2,1-2H3
