14
gdb 3114	5.82002	2.1466	1.85763	4.3164	62.83	-0.27	0.0185	0.2885	698.6424	0.115034	-287.430903	-287.424845	-287.423901	-287.460649	22.927	
N	 0.071063036	-1.1654278644	-0.0544355588	-0.351576
C	 0.045131173	-0.008018291	-0.0215454038	 0.185355
C	 0.0059534948	 1.414964398	 0.039824097	 0.227122
C	 0.2809404493	 2.2847226141	-1.1682677785	-0.309708
C	 1.1750325631	 2.4294108878	 0.0206189835	-0.086388
C	 0.4902554708	 3.2531559878	 1.1166084645	-0.221931
C	-0.6992622682	 2.2383959225	 1.1342713586	-0.288411
H	 0.7073963705	 1.7648778605	-2.0189337992	 0.13972
H	-0.4332678472	 3.0643045046	-1.4231692198	 0.121144
H	 2.2324654205	 2.2040684851	-0.035891341	 0.114248
H	 1.0412845639	 3.2536886679	 2.0583795105	 0.119159
H	 0.2532375146	 4.2866552327	 0.8475603751	 0.109397
H	-1.6878461993	 2.619375098	 0.8633929058	 0.111994
H	-0.7735084419	 1.7006493566	 2.0801304261	 0.129876
155.4593	175.8681	283.8696	402.549	518.6394	562.0097	583.3742	717.4667	785.7684	833.7075	865.0603	935.9682	941.8314	972.2986	1029.3634	1036.623	1092.5951	1103.4742	1145.9603	1209.3642	1225.3689	1247.3197	1279.2786	1294.1483	1378.5014	1481.1027	1482.6243	1506.843	2342.5154	3058.9477	3066.9244	3113.845	3115.5968	3135.3266	3197.4072	3217.2474
N#CC12CC1CC2	N#C[C@]12C[C@H]1CC2	
InChI=1S/C6H7N/c7-4-6-2-1-5(6)3-6/h5H,1-3H2	InChI=1S/C6H7N/c7-4-6-2-1-5(6)3-6/h5H,1-3H2/t5-,6+/m1/s1
