13
gdb 4530	3.67547	1.8226	1.22233	1.8893	56.87	-0.1629	0.0538	0.2167	905.9335	0.095847	-431.945018	-431.936812	-431.935867	-431.977275	29.275	
N	-0.007545615	 1.3414532775	 0.2226909775	-0.596876
C	-0.0280699187	-0.0459457897	 0.0543052499	 0.36588
N	-1.0939196966	-0.8126916083	 0.0074449856	-0.385587
C	-0.6141795275	-2.1022742996	-0.0498520968	 0.204456
O	-1.4335915335	-3.1896376858	-0.1151165657	-0.461686
C	 0.7457808064	-2.11470262	-0.0609013396	 0.276112
O	 1.7030704298	-3.0796765436	-0.1329400169	-0.450806
N	 1.1234036347	-0.7781436227	 0.0038243098	-0.335581
H	 0.4435900708	 1.8273120171	-0.5461672503	 0.246712
H	-0.9603512603	 1.6758319933	 0.3045551547	 0.257532
H	-2.3325460188	-2.8466412833	-0.16619724	 0.298617
H	 1.2589280859	-3.9107687197	-0.3315799474	 0.311865
H	 2.0593571129	-0.4437720851	 0.1574503092	 0.269363
120.1571	182.5237	201.1942	208.5668	257.8284	278.1249	310.3312	340.4456	420.1212	546.9724	637.4663	651.4437	663.1422	697.912	819.5879	846.7837	1043.3554	1113.9906	1151.704	1163.2628	1263.5354	1333.9943	1371.0838	1501.2087	1519.0154	1597.2486	1651.5548	1741.7959	3503.0468	3607.2636	3673.2528	3822.09	3831.8475
NC1=NC(O)=C(O)N1	Nc1nc(O)c(O)[nH]1	
InChI=1S/C3H5N3O2/c4-3-5-1(7)2(8)6-3/h7-8H,(H3,4,5,6)	InChI=1S/C3H5N3O2/c4-3-5-1(7)2(8)6-3/h7-8H,(H3,4,5,6)
