15
gdb 4111	3.04361	1.87281	1.21458	1.6898	60.22	-0.2601	-0.0096	0.2505	940.2622	0.118218	-436.886204	-436.878394	-436.87745	-436.918538	28.332	
O	-0.1210052877	 1.2685509422	-0.2709153942	-0.391229
N	-0.0128848168	-0.1271473191	-0.1838515153	-0.231261
C	-1.1402479032	-0.6718484684	 0.012138434	 0.333576
C	-2.5185985646	-0.0703282488	 0.1039292592	-0.158258
O	-3.3942283693	-1.1815834163	 0.2557270385	-0.25559
C	-2.7596794565	-2.3211647646	-0.3164116727	-0.102499
C	-1.2769903608	-2.1790042728	 0.0701678508	 0.047131
O	-0.4163859545	-2.882084597	-0.7901116091	-0.435505
H	 0.7892737767	 1.5423222935	-0.4281328963	 0.311512
H	-2.640109028	 0.6026118685	 0.9586371446	 0.138452
H	-2.7365839674	 0.5053217772	-0.8098493948	 0.126438
H	-3.2430255898	-3.2118548747	 0.0884693431	 0.120256
H	-2.8394184596	-2.3317042628	-1.4145939144	 0.105301
H	-1.1451885141	-2.5096863119	 1.1141954313	 0.096043
H	 0.3883067455	-2.356101385	-0.8729127046	 0.295632
75.2335	175.5504	206.7303	223.2722	255.3886	330.2557	372.5107	467.1666	524.6552	560.9895	647.477	659.4077	821.6079	948.1336	978.0078	995.838	1030.4718	1065.4887	1106.1532	1135.0992	1194.6065	1221.9807	1238.2555	1272.535	1315.8031	1342.2798	1379.4874	1410.4152	1418.1674	1488.0438	1515.8052	1779.4974	2960.336	2983.5729	2995.1455	3075.5172	3119.1859	3785.8724	3815.6301
ON=C1COCC1O	ON=C1COC[C@H]1O	
InChI=1S/C4H7NO3/c6-4-2-8-1-3(4)5-7/h4,6-7H,1-2H2	InChI=1S/C4H7NO3/c6-4-2-8-1-3(4)5-7/h4,6-7H,1-2H2/t4-/m1/s1
