15
gdb 3043	11.56642	1.13591	1.08002	4.3285	60.99	-0.255	0.0206	0.2756	1056.1942	0.125215	-341.794931	-341.787459	-341.786515	-341.828061	25.286	
N	 0.0249874157	 1.1318025518	 0.5990201872	-0.435896
C	-0.0824603051	 0.005099583	 0.042191561	 0.131792
O	-1.0034260373	-0.8777001626	 0.4740957812	-0.178904
C	-0.9627850169	-2.1944003979	-0.0784363238	-0.104331
C	-2.3580510413	-2.7492227793	-0.131846021	 0.027945
C	-2.5595279732	-4.2080242885	 0.0620924936	-0.247571
N	-3.0067111035	-3.252564549	 1.0845217936	-0.299857
H	 0.743207864	 1.6821261743	 0.1329639372	 0.229598
H	 0.5085886724	-0.3613931173	-0.8100392464	 0.082309
H	-0.5233608505	-2.1666507741	-1.0856004894	 0.110544
H	-0.324476198	-2.8300262239	 0.5521323319	 0.103496
H	-3.030997757	-2.2069178646	-0.7922889792	 0.104859
H	-3.35529327	-4.719050447	-0.4714291163	 0.126514
H	-1.6841727818	-4.8224262077	 0.2608790211	 0.112562
H	-2.3537162477	-3.2313697575	 1.8646042494	 0.236939
28.7638	76.503	110.1363	219.4892	315.2368	370.4457	466.1526	640.4781	813.7332	819.9536	835.7459	930.3461	939.8402	988.438	1026.27	1043.3085	1070.2236	1122.63	1139.2436	1152.3498	1212.1783	1249.7914	1275.6641	1300.4964	1325.8738	1370.5511	1421.0834	1446.2876	1496.2263	1515.9706	1748.5862	2989.893	3009.9386	3035.6715	3107.7087	3138.2913	3193.8419	3496.4989	3519.1492
N=COCC1CN1	[NH][CH]OC[C@H]1CN1	
InChI=1S/C4H8N2O/c5-3-7-2-4-1-6-4/h3-6H,1-2H2	InChI=1S/C4H8N2O/c5-3-7-2-4-1-6-4/h3-6H,1-2H2/t4-/m1/s1
