12
gdb 3858	4.00482	3.27501	1.81907	2.2162	51.4	-0.2101	0.0406	0.2508	641.2727	0.09295	-356.702115	-356.695943	-356.694998	-356.731808	23.1	
N	-0.2120078648	 1.4454592887	-0.0538010682	-0.631028
C	-0.0209664056	 0.0339919203	-0.0114900511	 0.000657
C	-1.0886994046	-0.8399135792	-0.0896044199	 0.447814
O	-2.4018699751	-0.5871716086	-0.209662166	-0.429438
N	-0.5943559876	-2.0904469869	-0.0235136742	-0.263945
N	 0.7655277663	-2.1033813787	 0.0962964804	-0.242108
C	 1.1043917067	-0.8201851016	 0.1028582627	-0.056642
H	 0.2714390203	 1.8718243095	-0.8381094107	 0.243415
H	 0.12811797	 1.9011536804	 0.7872158674	 0.243415
H	-2.4691571044	 0.3801838766	-0.2331816343	 0.308255
H	-1.1041318287	-2.9562001381	-0.0526591013	 0.276636
H	 2.1468294873	-0.5457910925	 0.1895441353	 0.102968
218.9005	234.6425	268.7373	312.7651	462.7025	473.5501	523.4374	673.263	682.9798	711.6638	760.829	849.6568	881.4902	946.422	1089.209	1182.8346	1213.9129	1216.2628	1259.3065	1361.9124	1409.7877	1457.4864	1601.0725	1636.8292	1683.0501	3230.3506	3493.1747	3556.8084	3684.3877	3722.9428
NC1=C(O)NN=C1	Nc1c(O)[nH]nc1	
InChI=1S/C3H5N3O/c4-2-1-5-6-3(2)7/h1H,4H2,(H2,5,6,7)	InChI=1S/C3H5N3O/c4-2-1-5-6-3(2)7/h1H,4H2,(H2,5,6,7)
