13
gdb 4710	5.14764	1.48326	1.15977	2.2478	65.41	-0.2601	-0.0667	0.1934	967.1614	0.095457	-398.652974	-398.645835	-398.644891	-398.684905	24.717	
C	-0.0048792496	 1.4432740688	 0.1110715284	-0.490439
C	-0.0204597191	-0.032199672	-0.0456012305	 0.395564
N	-0.1310415966	-0.7228457312	-1.1481230337	-0.295481
C	-0.0881887151	-2.0346792258	-0.7339289139	-0.155665
C	 0.0484275742	-2.0839029107	 0.6238753116	 0.230909
O	 0.0919835838	-0.7857793131	 1.0675143503	-0.181981
C	 0.1425563208	-3.1884413594	 1.5618907593	 0.062126
O	 0.2618534721	-3.0844524592	 2.7614221951	-0.274692
H	 0.9290501655	 1.7743617414	 0.5761693571	 0.158691
H	-0.1044424703	 1.9064589053	-0.8701442843	 0.163559
H	-0.8267979738	 1.7736227895	 0.7541082652	 0.158674
H	-0.1574654247	-2.8567491235	-1.4300908139	 0.144164
H	 0.0926979828	-4.1770818901	 1.0560589092	 0.084569
85.3295	135.993	160.7699	206.194	352.573	358.4424	501.8747	651.4922	675.5307	699.2386	787.4713	890.2667	978.3751	994.9528	1018.9532	1036.5141	1066.8964	1175.7054	1235.2642	1285.4178	1366.0457	1406.8639	1430.8392	1473.9208	1475.5181	1570.3531	1611.9116	1789.9007	2897.4244	3049.8887	3106.4877	3165.0296	3259.1569
CC1=NC=C(O1)C=O	Cc1ncc(o1)C=O	
InChI=1S/C5H5NO2/c1-4-6-2-5(3-7)8-4/h2-3H,1H3	InChI=1S/C5H5NO2/c1-4-6-2-5(3-7)8-4/h2-3H,1H3
