17
gdb 2107	4.64947	2.42077	1.74072	0.1906	60.74	-0.233	0.096	0.329	748.2453	0.149652	-346.856186	-346.849489	-346.848544	-346.886477	25.53	
C	-0.0149270205	 1.5165081366	 0.0451146076	-0.407083
C	 0.0251555435	-0.0015963564	-0.0054254445	 0.129705
C	 0.7367060511	-0.5382390276	-1.2495547122	-0.079677
O	 0.837643471	-1.9526549313	-1.2157334654	-0.251492
C	 1.5129845635	-2.3861448229	-0.0462088674	-0.077729
C	 0.8040155016	-1.8681504296	 1.1998650055	-0.077666
O	 0.7039397039	-0.4539750224	 1.1647041913	-0.263529
H	 0.9988365194	 1.9285431225	 0.0267921786	 0.124853
H	-0.5710792001	 1.9177815658	-0.8076251037	 0.116434
H	-0.5014751124	 1.8497905558	 0.9652949546	 0.128622
H	-1.001119183	-0.4088666813	-0.0008517708	 0.068787
H	 0.178483821	-0.2857799154	-2.1563436933	 0.105951
H	 1.740239737	-0.0837450773	-1.3149851572	 0.087359
H	 1.5195784536	-3.4802659994	-0.0698570422	 0.106207
H	 2.5552550249	-2.0258865835	-0.0519328233	 0.091608
H	-0.1993226278	-2.3207920416	 1.2645638598	 0.092228
H	 1.3625450133	-2.1251692721	 2.1055175226	 0.105422
158.0141	208.2512	262.4635	300.4077	359.2743	444.3308	477.8438	487.4593	614.7358	820.2708	884.2081	886.5606	914.6626	964.1031	1002.7194	1102.2376	1124.0042	1137.5032	1143.1736	1164.8658	1169.8499	1253.9114	1297.2107	1323.9132	1334.1597	1374.3968	1391.2018	1408.9898	1415.801	1425.3779	1477.5552	1484.2485	1486.0429	1493.2477	1501.662	2949.9274	2965.3371	2968.8855	2978.8374	3042.9909	3081.5244	3082.9558	3085.0721	3115.5113	3123.7775
CC1COCCO1	C[C@H]1COCCO1	
InChI=1S/C5H10O2/c1-5-4-6-2-3-7-5/h5H,2-4H2,1H3	InChI=1S/C5H10O2/c1-5-4-6-2-3-7-5/h5H,2-4H2,1H3/t5-/m0/s1
