21
gdb 1092	4.10653	1.40201	1.38219	1.3499	70.67	-0.2609	0.0731	0.334	1017.7512	0.192336	-312.125621	-312.11614	-312.115196	-312.159175	34.638	
C	-0.0737611491	 1.5617842257	 0.0837137016	-0.400233
C	 0.0232733246	 0.0246876802	 0.0356054065	 0.257026
C	 0.6955693717	-0.4901460145	 1.3229878687	-0.400235
C	-1.4000602152	-0.5585251094	-0.0464482651	-0.398916
C	 0.795924357	-0.4441634075	-1.2203655809	-0.163888
C	 2.2439173473	 0.016457024	-1.3556961529	-0.095614
O	 2.7410838752	-0.5311975672	-2.5713691504	-0.420762
H	 0.9069029001	 2.0328433149	 0.204504248	 0.109054
H	-0.5253931724	 1.9581547992	-0.8325958469	 0.109241
H	-0.6956435273	 1.8833621305	 0.9265464176	 0.107403
H	 0.0962566578	-0.2296372866	 2.2024640212	 0.107399
H	 0.8017810454	-1.5805973823	 1.3045256067	 0.109245
H	 1.6912331656	-0.0592086534	 1.4683968341	 0.109061
H	-1.9183578138	-0.2110548478	-0.9468421483	 0.108617
H	-1.3775729318	-1.6533913844	-0.0753967134	 0.108618
H	-1.9978038786	-0.2584032635	 0.8212208014	 0.105131
H	 0.7948776772	-1.540957826	-1.2533456531	 0.097923
H	 0.259006832	-0.1101871677	-2.1171492579	 0.097913
H	 2.300493117	 1.115642001	-1.3714636488	 0.084761
H	 2.8418733046	-0.3299248596	-0.498873957	 0.084768
H	 3.6546027229	-0.2493361356	-2.6738797812	 0.283487
61.9903	104.3182	191.8758	222.3042	255.8641	264.2973	270.7453	329.3023	331.5411	339.9183	410.4815	432.4017	503.6311	755.9136	795.1678	918.9314	931.1552	940.0466	957.8758	991.5268	1015.1583	1054.2206	1076.6645	1098.7217	1210.5298	1217.4817	1262.4671	1276.7934	1283.4006	1334.8036	1353.5034	1396.7132	1403.1642	1433.137	1463.1345	1479.418	1480.9574	1485.4206	1489.9521	1508.1696	1509.789	1517.2799	1530.5917	2975.8343	3001.1317	3020.2063	3022.2561	3023.8882	3032.3627	3063.9078	3088.4877	3088.9195	3093.8169	3096.4016	3097.4093	3100.774	3829.6111
CC(C)(C)CCO	CC(C)(C)CCO	
InChI=1S/C6H14O/c1-6(2,3)4-5-7/h7H,4-5H2,1-3H3	InChI=1S/C6H14O/c1-6(2,3)4-5-7/h7H,4-5H2,1-3H3
