15
gdb 2218	3.82361	2.82753	2.15141	1.8343	56.46	-0.2338	0.059	0.2928	663.8801	0.124551	-345.603646	-345.596955	-345.596011	-345.633826	25.297	
C	-0.0417146034	 1.5859750644	 0.0226299143	-0.502563
C	 0.0201607151	 0.0878212289	 0.0202868905	 0.224078
C	-1.1792487679	-0.8554455927	 0.0197027074	-0.138269
O	-0.475699605	-1.8321790729	 0.8449246166	-0.307607
C	 0.6378529874	-0.9346523407	 0.9764564838	-0.015386
C	 1.2365837654	-0.7387272126	-0.3766405932	 0.077116
O	 1.2089742922	-1.7511609349	-1.3317775191	-0.437534
H	 0.9406237565	 2.0206094454	 0.2332765772	 0.124337
H	-0.3663762036	 1.9690232193	-0.9522228386	 0.128753
H	-0.7407062983	 1.9606293426	 0.779319253	 0.120978
H	-2.0476968192	-0.4642019811	 0.5608613789	 0.11174
H	-1.4916940145	-1.2732993359	-0.9439073126	 0.11272
H	 1.1247978119	-0.8756199002	 1.9442756567	 0.10283
H	 2.1608177604	-0.1667984186	-0.408238667	 0.102997
H	 0.716226123	-2.4795685111	-0.928987558	 0.295809
183.7655	210.5698	244.1813	271.5825	298.6243	448.1581	499.5165	608.5713	656.9587	788.3522	809.132	907.46	940.4945	962.0677	992.6072	1005.4399	1035.061	1072.2872	1127.3862	1155.2881	1175.3902	1237.0552	1267.4864	1299.2121	1315.9481	1397.7717	1419.7909	1469.6522	1487.2336	1498.192	1511.3747	3021.6799	3030.0394	3080.1041	3082.2051	3098.3418	3147.0077	3167.6374	3747.8922
CC12COC1C2O	C[C@]12CO[C@H]1[C@H]2O	
InChI=1S/C5H8O2/c1-5-2-7-4(5)3(5)6/h3-4,6H,2H2,1H3	InChI=1S/C5H8O2/c1-5-2-7-4(5)3(5)6/h3-4,6H,2H2,1H3/t3-,4+,5-/m1/s1
