17
gdb 2695	14.13723	0.89944	0.86383	1.2481	67.87	-0.2544	0.0347	0.289	1321.3065	0.145435	-309.674485	-309.665707	-309.664763	-309.708151	30.04	
C	-0.0312949183	 1.5156780174	 0.0367633565	-0.383712
C	 0.0165901587	-0.0130470302	-0.0225796951	-0.184195
C	 0.7260441578	-0.5234727341	-1.2683377863	-0.019354
O	 0.7245868388	-1.9376553208	-1.2423498368	-0.245066
C	 1.3664250935	-2.4986847739	-2.3681262096	-0.205452
C	 1.336041015	-3.9536603617	-2.2898720146	 0.280269
C	 1.3259027955	-5.1537515925	-2.2517151143	-0.41561
H	 0.9756070495	 1.947578533	 0.0452253427	 0.11664
H	-0.5635116406	 1.9331584246	-0.8251609298	 0.116641
H	-0.5452226297	 1.8566241538	 0.9399101181	 0.119048
H	 0.5313353762	-0.4129633507	 0.8582837583	 0.11031
H	-0.9977915359	-0.4272851005	-0.0066912863	 0.110308
H	 0.2185138253	-0.1572055306	-2.1784277451	 0.084167
H	 1.7622367319	-0.1427562808	-1.3052130171	 0.084171
H	 0.8743157865	-2.1685097854	-3.2998246971	 0.116222
H	 2.4135996447	-2.1538608461	-2.4295398156	 0.116219
H	 1.3130564513	-6.2147914414	-2.2111342179	 0.199395
51.8747	102.3102	102.3931	142.4012	217.427	241.3047	335.6121	374.7664	396.9758	568.842	606.9031	674.7483	764.3368	900.0817	905.5414	978.8787	1012.7864	1032.9195	1056.8295	1146.2506	1152.752	1192.1974	1254.3695	1268.9823	1313.553	1330.3203	1390.1243	1413.757	1449.0381	1490.8237	1498.2559	1502.0461	1508.3658	1529.2258	2248.1463	2937.9029	2950.5079	2962.3877	2966.9012	3032.371	3041.3317	3073.9466	3101.1627	3109.7343	3506.9999
CCCOCC#C	CCCOCC#C	
InChI=1S/C6H10O/c1-3-5-7-6-4-2/h1H,4-6H2,2H3	InChI=1S/C6H10O/c1-3-5-7-6-4-2/h1H,4-6H2,2H3
