11
gdb 4733	6.85909	1.38347	1.15256	5.5698	62.84	-0.2308	-0.06	0.1709	934.526	0.073831	-393.615452	-393.608849	-393.607905	-393.646206	24.063	
N	-0.0000278242	 1.3924704225	 0.1549486538	-0.601453
C	-0.0365021	 0.0153863756	 0.0474022493	 0.276674
C	-1.0953346717	-0.8512427584	 0.0046999286	-0.10604
O	-0.5929385634	-2.1238563489	-0.0288632202	-0.157696
C	 0.7431775261	-1.9564167594	-0.0035138157	 0.303201
N	 1.1334986929	-0.7140251294	 0.0399335607	-0.333967
C	 1.5590368778	-3.1158471797	-0.0302547277	 0.266008
N	 2.2233744107	-4.0629072074	-0.0536541155	-0.324193
H	 0.8863332879	 1.7795499269	-0.1373964011	 0.266509
H	-0.7815688634	 1.8771180965	-0.2610217111	 0.257703
H	-2.1660168626	-0.7539632383	-0.003245271	 0.153254
144.7407	162.0959	254.3987	332.4518	384.7903	494.5007	561.4215	583.5467	618.4472	667.7147	719.1506	737.4307	755.5374	990.1236	1030.1528	1101.4722	1137.124	1245.0391	1348.7308	1395.146	1554.1156	1626.8242	1664.7142	2356.214	3304.6395	3568.308	3669.4119
NC1=COC(=N1)C#N	Nc1coc(n1)C#N	
InChI=1S/C4H3N3O/c5-1-4-7-3(6)2-8-4/h2H,6H2	InChI=1S/C4H3N3O/c5-1-4-7-3(6)2-8-4/h2H,6H2
