13
gdb 3284	5.69921	2.59864	2.13169	4.1722	53.09	-0.2719	0.0076	0.2795	617.0056	0.103212	-344.46427	-344.458732	-344.457788	-344.493679	20.74	
O	-0.1992426629	 0.1809081756	 0.4007676597	-0.322928
C	-0.0289849792	 1.2983905394	 0.0349276742	 0.453403
O	-0.9782922587	 2.1763988233	-0.4482788175	-0.255897
C	 0.02313744	 3.2199968725	-0.6734867476	 0.117353
C	 0.1432922596	 4.1748314623	 0.5310227517	-0.235546
C	 1.2242064879	 3.2365104513	 1.1545697473	-0.23581
C	 1.119239893	 2.2937203627	-0.0897063094	-0.223719
H	-0.0252921733	 3.5955396189	-1.6940310262	 0.101191
H	 0.5323831944	 5.159206477	 0.2610516817	 0.115888
H	-0.7845687915	 4.301145542	 1.0914081069	 0.127081
H	 2.2053188514	 3.7067303612	 1.2348636768	 0.120929
H	 0.9834456408	 2.7719786981	 2.1122623858	 0.128641
H	 2.0266846484	 1.9663661057	-0.5919596833	 0.109415
127.8406	211.1525	374.6019	471.9237	643.7531	719.7848	748.3579	811.2498	844.9625	866.6297	915.5766	949.2446	973.6767	1003.1142	1049.556	1108.4878	1121.0111	1175.0297	1204.4814	1235.286	1245.6064	1277.7816	1298.6681	1325.1592	1467.1263	1492.6274	1935.9228	3074.7112	3082.8029	3124.2394	3134.0256	3140.5766	3150.0344
O=C1OC2CCC12	O=C1O[C@H]2CC[C@@H]12	
InChI=1S/C5H6O2/c6-5-3-1-2-4(3)7-5/h3-4H,1-2H2	InChI=1S/C5H6O2/c6-5-3-1-2-4(3)7-5/h3-4H,1-2H2/t3-,4+/m1/s1
