17
gdb 2039	4.38768	2.46016	2.2053	1.1329	63.59	-0.2432	0.0776	0.3208	689.526	0.1478	-309.689595	-309.682688	-309.681743	-309.719705	27.39	
C	-0.1028791321	 1.574118833	 0.0307768901	-0.449654
C	 0.0506474452	 0.0589303897	 0.0182322649	 0.416373
O	-1.2135580561	-0.5680739836	-0.1593853591	-0.479765
C	 1.1470255003	-0.5758950135	-0.9187015151	-0.29168
C	 1.7445405778	-1.2902727518	 0.3000187262	-0.033415
C	 2.1749684219	-0.2783123716	 1.3210862703	-0.290538
C	 0.7164363321	-0.6289139456	 1.2172645988	-0.058035
H	 0.8481041894	 2.0794885654	 0.2204531134	 0.116368
H	-0.4752671126	 1.9321498288	-0.9379543759	 0.103019
H	-0.8182679132	 1.8748267546	 0.8024950602	 0.123502
H	-1.6034844819	-0.2168069089	-0.9674966781	 0.271761
H	 0.6757231129	-1.2536338558	-1.6333090322	 0.101971
H	 1.8173606025	 0.1087680751	-1.4506891788	 0.084227
H	 2.1078496127	-2.3101776289	 0.3139841919	 0.083511
H	 2.675763188	-0.6782675792	 2.1971326378	 0.111913
H	 2.5455187306	 0.6966123782	 1.0120933359	 0.102178
H	 0.1553963923	-1.048484666	 2.0433331297	 0.088264
181.3148	232.2164	255.8765	297.789	374.2716	397.8367	441.4748	485.0372	624.658	753.9242	791.8093	840.579	852.4601	929.884	948.8875	964.1812	983.7197	988.1484	1038.858	1067.5916	1088.0556	1111.6613	1138.4684	1166.0884	1208.1496	1235.3746	1252.5292	1281.1699	1354.7357	1389.3178	1405.4756	1468.1049	1485.667	1491.504	1498.4547	3021.3184	3035.6726	3088.5666	3105.9276	3112.0843	3117.4038	3182.4907	3187.8838	3201.0978	3799.1866
CC1(O)CC2CC12	C[C@@]1(O)C[C@H]2C[C@@H]12	
InChI=1S/C6H10O/c1-6(7)3-4-2-5(4)6/h4-5,7H,2-3H2,1H3	InChI=1S/C6H10O/c1-6(7)3-4-2-5(4)6/h4-5,7H,2-3H2,1H3/t4-,5-,6-/m1/s1
