16
gdb 2283	6.9546	1.43751	1.40762	3.6685	62.99	-0.2488	0.0311	0.2799	898.4806	0.13786	-325.794522	-325.78744	-325.786496	-325.826354	25.411	
O	 0.1901148224	-0.3604736652	 0.4429671086	-0.321137
C	-0.0106103693	 0.8127511417	 0.212363659	 0.150902
N	 0.9413640528	 1.7257563805	-0.1271333555	-0.290593
C	 2.3425745988	 1.4141786617	-0.2603248154	 0.087125
C	 3.0847908906	 1.7878260311	-1.572611919	-0.236767
C	 4.326685291	 2.1362494572	-0.7067283635	-0.210374
C	 3.3875668596	 2.2528264121	 0.5253126121	-0.236778
H	-1.0185575737	 1.2722471849	 0.2559355299	 0.071046
H	 0.6433307246	 2.6746917413	-0.2941403204	 0.24146
H	 2.4396816037	 0.3505742565	-0.0386002293	 0.126581
H	 3.1779830322	 1.0166716629	-2.3404580883	 0.108243
H	 2.6516816392	 2.6851611934	-2.0278925705	 0.094105
H	 5.009351901	 1.2873148854	-0.6170843299	 0.111696
H	 4.9039485292	 3.0193474769	-0.9857716651	 0.10215
H	 3.040493852	 3.2822875471	 0.6661151508	 0.094102
H	 3.7303825259	 1.8650557924	 1.4871153065	 0.108239
45.1846	128.0467	195.0131	230.6489	399.7472	417.1435	543.3537	601.6064	734.6994	786.2503	825.2651	909.7084	925.7496	946.5282	974.7209	1023.5461	1050.38	1090.1476	1148.0768	1196.9581	1215.9835	1249.715	1251.1242	1259.4084	1278.0905	1297.3253	1368.9839	1433.1805	1476.2046	1486.9383	1508.7161	1534.215	1807.2194	2930.068	3044.8888	3049.2462	3068.6287	3101.6827	3108.9799	3119.7953	3130.6125	3619.7659
O=CNC1CCC1	O=CNC1CCC1	
InChI=1S/C5H9NO/c7-4-6-5-2-1-3-5/h4-5H,1-3H2,(H,6,7)	InChI=1S/C5H9NO/c7-4-6-5-2-1-3-5/h4-5H,1-3H2,(H,6,7)
