17
gdb 2805	4.37528	2.12076	1.60088	2.1281	60.81	-0.2449	0.0757	0.3206	812.4726	0.14708	-346.824672	-346.816827	-346.815882	-346.857051	27.373	
C	 0.2126793668	 1.4399992044	 0.06414695	-0.238938
O	-0.2860895559	 0.1710010217	-0.2971813974	-0.23548
C	 0.5292386618	-0.5040723207	-1.2149760887	 0.072512
C	 1.7664886709	-1.2390953107	-0.6481093869	-0.09736
O	 1.2178641951	-2.5216389496	-1.0059299382	-0.292487
C	 0.0177290246	-1.9236231522	-1.5610393482	 0.119389
C	-1.2479237677	-2.4106248788	-0.8852903671	-0.388642
H	 1.1901148603	 1.3727645973	 0.565099803	 0.10996
H	 0.3198109621	 2.0968110583	-0.813345456	 0.107376
H	-0.5055947942	 1.8857360542	 0.7559415707	 0.13157
H	 0.7378354186	 0.1347790466	-2.0850408271	 0.069514
H	 2.7214762675	-1.0431506908	-1.1514517392	 0.09686
H	 1.8959288698	-1.1300924888	 0.4364373514	 0.102329
H	-0.0304677551	-2.108696554	-2.6427917723	 0.073748
H	-1.236151089	-2.1772463826	 0.1808824389	 0.130606
H	-2.128086738	-1.9386171212	-1.3334432355	 0.117669
H	-1.3336559875	-3.4941555932	-1.0122865673	 0.121374
64.6729	104.5355	176.7602	204.1931	216.0117	312.0417	402.2398	441.89	519.6953	757.1983	826.4633	875.6464	916.1616	991.9698	1022.8287	1049.0938	1092.9073	1103.9987	1148.2576	1167.8448	1183.4483	1186.7288	1238.5728	1275.0984	1294.4221	1348.7117	1381.2024	1397.7504	1408.0916	1481.8092	1484.3587	1488.2034	1490.2887	1508.6008	1512.4311	2975.0143	2993.0558	3005.5692	3015.631	3024.4169	3044.9463	3056.3454	3112.3383	3119.0867	3140.2829
COC1COC1C	CO[C@H]1CO[C@H]1C	
InChI=1S/C5H10O2/c1-4-5(6-2)3-7-4/h4-5H,3H2,1-2H3	InChI=1S/C5H10O2/c1-4-5(6-2)3-7-4/h4-5H,3H2,1-2H3/t4-,5-/m0/s1
