12
gdb 982	3.85467	3.4526	1.83893	1.4602	51.67	-0.1938	0.0447	0.2385	636.6865	0.092694	-356.722498	-356.716277	-356.715333	-356.752206	23.334	
N	-0.1665580892	 1.4160909715	-0.042838274	-0.617177
C	-0.0433661865	 0.004366763	-0.008878559	 0.098014
C	-1.1152854064	-0.8419178967	-0.0947351687	 0.371903
O	-2.4380328108	-0.6131643699	-0.2210005469	-0.437616
N	-0.6143521981	-2.1137226985	-0.0280285412	-0.306875
C	 0.7514774354	-1.9862420254	 0.0965691343	-0.008018
N	 1.121605645	-0.7312667951	 0.1108892974	-0.288399
H	 0.3640207467	 1.8082994628	-0.8162115712	 0.241556
H	 0.2140406363	 1.8341343298	 0.8020470254	 0.241555
H	-2.5258936215	 0.3505552098	-0.244491829	 0.308381
H	-1.154736569	-2.9614071287	-0.0646234445	 0.270787
H	 1.3981316282	-2.8470489726	 0.1702488974	 0.125889
204.9397	246.5798	269.3435	314.8058	473.7061	479.9548	484.0664	667.2913	679.7617	698.9799	757.8659	771.0799	880.4884	953.7025	1086.4044	1131.9292	1209.2875	1220.8182	1296.7311	1330.1716	1416.2432	1506.0333	1557.8513	1646.2866	1702.5519	3254.4417	3480.3216	3539.1319	3669.9509	3757.1605
NC1=C(O)NC=N1	Nc1c(O)[nH]cn1	
InChI=1S/C3H5N3O/c4-2-3(7)6-1-5-2/h1,7H,4H2,(H,5,6)	InChI=1S/C3H5N3O/c4-2-3(7)6-1-5-2/h1,7H,4H2,(H,5,6)
