15
gdb 4993	3.31014	2.27642	1.36001	3.5541	71.79	-0.2104	-0.0311	0.1793	868.1138	0.121203	-362.745493	-362.738602	-362.737658	-362.776445	26.268	
C	-0.0256629332	 1.5170741709	 0.0122445258	-0.471749
C	-0.0043609878	 0.0184320863	-0.0369500887	 0.137947
C	-0.0428014408	-0.7083655552	-1.1918842691	-0.148303
C	-0.0207621909	-2.1331281635	-1.1989548716	-0.164595
C	 0.0408217839	-2.7803532624	-0.0066041716	 0.02768
N	 0.0796065544	-2.0656910985	 1.1531671749	-0.356793
C	 0.0619781752	-0.66519887	 1.2513035216	 0.375891
O	 0.1009787029	-0.1257399151	 2.3481530486	-0.395659
H	 0.86574365	 1.9011828602	 0.5201278456	 0.142178
H	-0.076012271	 1.9478208228	-0.9908519862	 0.111175
H	-0.8811878765	 1.8738402293	 0.5960894439	 0.142185
H	-0.092039905	-0.1834945469	-2.1424628308	 0.10193
H	-0.0519346504	-2.6911280406	-2.1246043179	 0.105395
H	 0.0620620179	-3.8584672042	 0.0946276778	 0.132378
H	 0.1256288714	-2.5387293933	 2.0450731478	 0.26034
140.3155	151.5638	252.579	288.5795	418.8781	471.6954	539.0745	539.8792	584.2208	703.3941	735.3958	764.146	791.884	889.9216	919.7473	945.4505	1002.9576	1068.683	1074.6479	1115.1983	1165.032	1220.1218	1256.3781	1368.6504	1415.5815	1438.4581	1468.2411	1481.5757	1494.8926	1604.3491	1673.8175	1763.8896	3035.2822	3087.743	3121.8216	3162.7459	3206.6947	3231.4076	3606.9173
CC1=CC=CNC1=O	Cc1ccc[nH]c1=O	
InChI=1S/C6H7NO/c1-5-3-2-4-7-6(5)8/h2-4H,1H3,(H,7,8)	InChI=1S/C6H7NO/c1-5-3-2-4-7-6(5)8/h2-4H,1H3,(H,7,8)
