18
gdb 2862	4.39402	1.78614	1.54083	2.2059	65.09	-0.2162	0.0657	0.2819	874.8075	0.159056	-326.937372	-326.929114	-326.92817	-326.969889	29.447	
C	-0.1209382165	 1.5825196184	-0.2454785085	-0.370235
C	 0.0305338246	 0.150376479	 0.2615114587	-0.125635
N	-1.2598758822	-0.5377364124	 0.2054121288	-0.085934
C	-1.612626257	-1.2384222598	-1.0272937855	-0.247571
C	-1.3102135477	-1.9975841085	 0.2180992427	 0.006685
C	-0.0913855947	-2.8932919753	 0.3303219205	-0.115721
O	 0.7901239894	-2.7063095756	-0.7686493656	-0.40318
H	 0.8250458917	 2.1263756449	-0.15858273	 0.105793
H	-0.4202209374	 1.5926368367	-1.2988243725	 0.116184
H	-0.8853097068	 2.1159194907	 0.3269301713	 0.121581
H	 0.8116172626	-0.3738578599	-0.3064590956	 0.105391
H	 0.3461497667	 0.1650422297	 1.3127407079	 0.091434
H	-2.6381085887	-1.1214331745	-1.3691115994	 0.10549
H	-0.8642556906	-1.2925546577	-1.8143994931	 0.127952
H	-2.1441334566	-2.3857452694	 0.8029787449	 0.087509
H	 0.4226930161	-2.6925616418	 1.284304903	 0.095463
H	-0.4477607976	-3.9351614659	 0.370173143	 0.095562
H	 1.6060746447	-3.1794591386	-0.5804010606	 0.289231
85.3415	107.9903	158.9659	217.0611	230.5085	263.4309	297.9503	406.6912	476.9025	621.5969	731.4338	777.5875	816.8458	921.4199	961.0025	969.9357	1037.607	1050.7184	1098.4602	1107.5317	1120.3209	1142.7561	1176.1079	1203.0294	1235.2201	1278.3424	1313.2065	1337.661	1388.2912	1408.2409	1417.0504	1457.7317	1488.0156	1496.7022	1504.1112	1511.4284	1523.5248	2964.8533	2989.5276	3006.126	3036.3686	3043.2681	3098.1436	3103.5197	3104.7559	3116.0532	3185.7377	3828.497
CCN1CC1CO	CCN1C[C@H]1CO	
InChI=1S/C5H11NO/c1-2-6-3-5(6)4-7/h5,7H,2-4H2,1H3	InChI=1S/C5H11NO/c1-2-6-3-5(6)4-7/h5,7H,2-4H2,1H3/t5-,6?/m0/s1
