13
gdb 4409	3.92762	1.98751	1.32097	4.1555	64.29	-0.2228	-0.0267	0.1962	850.3717	0.098847	-394.86277	-394.856282	-394.855338	-394.893227	25.039	
N	 0.0114860667	 1.3716595379	 0.1572597414	-0.566314
C	-0.0340475918	 0.0056098078	 0.0560065969	 0.49603
N	-1.1949275454	-0.5984730521	 0.0358602006	-0.349782
C	-1.1509012467	-1.9623872451	-0.001876214	 0.01367
C	-0.019387483	-2.7201505064	-0.0385743184	-0.246441
C	 1.2720903019	-2.0796275938	-0.0224607397	 0.411102
O	 2.3798377386	-2.5807308455	-0.0413069554	-0.391114
N	 1.1505475786	-0.6619248004	 0.0292713093	-0.38895
H	 0.8033340213	 1.8552668064	-0.2363784868	 0.261377
H	-0.8813965261	 1.8118359844	-0.006637175	 0.274801
H	-2.1257587469	-2.4436566015	-0.0084867531	 0.115925
H	-0.0486383633	-3.8004966793	-0.0744353178	 0.112686
H	 2.0322263462	-0.1693978724	 0.088330072	 0.25701
166.1656	202.3677	342.295	352.6996	426.4701	508.3251	533.8712	545.6808	578.7956	651.5346	737.968	783.1903	786.3458	841.5034	959.6701	1003.3883	1012.1935	1071.5734	1128.317	1206.1325	1314.8228	1334.9218	1436.8376	1512.7728	1593.6742	1628.3594	1658.7085	1803.7241	3162.2406	3232.0116	3583.3583	3590.2951	3698.6359
NC1=NC=CC(=O)N1	Nc1nccc(=O)[nH]1	
InChI=1S/C4H5N3O/c5-4-6-2-1-3(8)7-4/h1-2H,(H3,5,6,7,8)	InChI=1S/C4H5N3O/c5-4-6-2-1-3(8)7-4/h1-2H,(H3,5,6,7,8)
