14
gdb 4889	5.3731	1.38697	1.16898	3.715	60.05	-0.191	0.0461	0.2371	983.689	0.107499	-415.898986	-415.891179	-415.890235	-415.931587	27.67	
C	 0.1167011791	 1.2891273635	 0.1998139545	-0.250628
O	-0.2393394118	 0.2503964775	-0.7193151069	-0.267107
C	-1.2946293399	-0.5005880628	-0.3478353647	 0.368154
C	-1.3450207538	-1.7541574126	 0.1427630019	-0.20035
N	-2.70068764	-2.0660145389	 0.3121155336	-0.334376
C	-3.5204463568	-1.0246067738	-0.0947191625	 0.447176
O	-4.7337148161	-0.9805589303	-0.1248455438	-0.429635
N	-2.6091964935	-0.0341498415	-0.4649734931	-0.402975
H	 0.9799970694	 1.7988952868	-0.2306763102	 0.13948
H	-0.7023459501	 2.006524323	 0.3299415779	 0.123498
H	 0.3813538031	 0.8668140418	 1.1760423447	 0.127341
H	-0.5505021545	-2.432459936	 0.3964032656	 0.14063
H	-3.0779983995	-2.9537280859	 0.5912502346	 0.268839
H	-2.8961842957	 0.8019268891	-0.9434865016	 0.269955
59.6344	137.3306	148.6047	190.0426	339.9171	359.4215	417.2688	483.9986	535.4364	605.5355	655.5218	723.9065	757.6142	762.6918	973.119	983.9896	1049.4259	1085.0664	1172.636	1182.4584	1202.9354	1260.6173	1355.1839	1383.0224	1409.5379	1477.501	1487.1869	1502.5437	1712.6675	1846.553	3016.7395	3083.3208	3141.0513	3296.8281	3688.1163	3698.9917
COC1=CNC(=O)N1	COc1c[nH]c(=O)[nH]1	
InChI=1S/C4H6N2O2/c1-8-3-2-5-4(7)6-3/h2H,1H3,(H2,5,6,7)	InChI=1S/C4H6N2O2/c1-8-3-2-5-4(7)6-3/h2H,1H3,(H2,5,6,7)
