19
gdb 2237	4.35147	2.52978	2.07111	0.1615	70.51	-0.2527	0.0893	0.342	729.8344	0.173815	-273.796695	-273.790045	-273.789101	-273.826619	26.781	
C	-0.1856609886	 1.5346969807	 0.1145859136	-0.480338
C	 0.0756624497	 0.0521251184	-0.0015742924	 0.376642
C	-0.7825000537	-0.9236356798	 0.7713985802	-0.333223
C	 0.680417633	-0.766745405	 1.1225271439	-0.054125
C	 1.6577289197	-1.7690725275	 0.5272291461	-0.209728
C	 1.2639257524	-1.858196421	-0.9662549514	-0.225425
C	 0.6694506949	-0.4727737771	-1.3074038087	-0.255844
H	 0.7221798285	 2.1155212198	-0.089692209	 0.110434
H	-0.9529893797	 1.8631336354	-0.5970480694	 0.113457
H	-0.533257571	 1.8016260215	 1.1179252323	 0.110854
H	-1.5019338496	-0.4984779382	 1.463798233	 0.102119
H	-1.1230238956	-1.8398092093	 0.2983478057	 0.102951
H	 0.9270707626	-0.3025442701	 2.0721495779	 0.072992
H	 2.6790933138	-1.3823671997	 0.6315982268	 0.095315
H	 1.6337250646	-2.7474943001	 1.0202168054	 0.093179
H	 2.1095722014	-2.1201999693	-1.6076203504	 0.09426
H	 0.5103161126	-2.6386383287	-1.1112872098	 0.103327
H	-0.0618284858	-0.5220131599	-2.122697926	 0.090984
H	 1.4622950907	 0.2139786597	-1.6323128379	 0.09217
199.8421	225.0792	243.9183	316.8763	372.0266	422.6308	547.1288	622.5167	686.1029	812.0567	818.4143	876.8098	887.9474	917.2104	928.4685	958.904	985.3912	1022.4156	1052.5724	1067.8811	1079.7572	1097.6027	1132.8373	1188.5713	1200.1106	1261.0332	1268.098	1294.4928	1321.5107	1341.7469	1347.0358	1407.3333	1422.211	1489.0616	1490.4029	1492.5439	1495.2943	1503.586	1519.7743	3015.3348	3019.1605	3026.3267	3046.6228	3059.6991	3066.5239	3073.5293	3093.6088	3096.8916	3122.476	3155.8139	3202.6892
CC12CC1CCC2	C[C@]12C[C@H]1CCC2	
InChI=1S/C7H12/c1-7-4-2-3-6(7)5-7/h6H,2-5H2,1H3	InChI=1S/C7H12/c1-7-4-2-3-6(7)5-7/h6H,2-5H2,1H3/t6-,7+/m1/s1
