9
gdb 765	9.86886	3.93452	2.81731	3.0643	40.19	-0.2475	0.0015	0.249	427.0676	0.063595	-317.41389	-317.409159	-317.408214	-317.441698	17.011	
N	 0.0062324593	 1.3419742116	 0.1408024743	-0.5863
C	-0.0450885246	-0.0092511677	 0.0449673991	 0.513224
N	-1.1095700661	-0.769307746	 0.0291250183	-0.346146
C	-0.5374969899	-2.0129229106	-0.0158583565	 0.057733
N	 0.764850141	-2.0560404242	-0.0322938186	-0.135404
O	 1.1121963378	-0.6758747696	 0.0099502894	-0.207785
H	 0.8586092416	 1.7903380767	-0.1537497383	 0.278587
H	-0.8497707243	 1.8235985301	-0.0816044279	 0.282732
H	-1.1165590749	-2.9255285504	-0.0395084599	 0.143358
293.3091	364.1179	416.6738	459.0687	635.6163	741.4928	774.8002	880.874	937.5931	976.7864	1019.3321	1080.2897	1224.3978	1274.1606	1404.735	1562.9495	1608.0467	1683.7213	3252.4301	3604.2489	3720.4285
NC1=NC=NO1	Nc1ncno1	
InChI=1S/C2H3N3O/c3-2-4-1-5-6-2/h1H,(H2,3,4,5)	InChI=1S/C2H3N3O/c3-2-4-1-5-6-2/h1H,(H2,3,4,5)
