13
gdb 4323	4.13508	1.89486	1.29942	4.2799	65.51	-0.2073	-0.0318	0.1755	860.9725	0.098778	-394.831595	-394.825285	-394.824341	-394.861942	24.584	
O	 0.0118317675	 1.327395884	 0.0081464262	-0.411729
C	-0.017206075	-0.0168865566	 0.0008468062	 0.433101
C	-1.1974667045	-0.6904451614	 0.0036141888	-0.246463
C	-1.2112839617	-2.1314647227	-0.0043097025	 0.382446
N	-2.2758327143	-2.8446478616	-0.0024021501	-0.560736
N	 0.1085929317	-2.6679299393	-0.0145677921	-0.35437
C	 1.2242567133	-1.9050927779	-0.0164874591	 0.111947
N	 1.2283602487	-0.6124673055	-0.0093326513	-0.368108
H	 0.9454803028	 1.5778497681	 0.0043934084	 0.301844
H	-2.1446347604	-0.1705246095	 0.0117200107	 0.122612
H	-2.0679789351	-3.843655189	-0.0090959878	 0.192397
H	 0.2030607353	-3.6730353125	-0.0206757468	 0.258459
H	 2.1684752418	-2.444244326	-0.0246926508	 0.1386
165.2589	196.1679	361.6888	425.189	476.8382	501.888	549.142	568.8426	611.9133	687.6757	749.2183	782.0107	793.8358	866.0688	933.4375	964.6573	984.6173	1112.4308	1177.5552	1212.3012	1285.9511	1305.7051	1395.5301	1451.9781	1474.7245	1627.5487	1686.5792	1742.835	3166.6276	3241.2756	3465.3162	3614.3263	3779.2413
OC1=CC(=N)NC=N1	O[C@H]1C=C([NH])NC=N1	
InChI=1S/C4H5N3O/c5-3-1-4(8)7-2-6-3/h1-2H,(H3,5,6,7,8)	InChI=1S/C4H6N3O/c5-3-1-4(8)7-2-6-3/h1-2,4-5,8H,(H,6,7)/t4-/m0/s1
