11
gdb 1584	4.86338	2.22343	1.52747	1.8806	56.32	-0.253	-0.0811	0.1719	735.4016	0.077006	-339.41629	-339.409078	-339.408134	-339.447459	25.653	
N	-0.0592329134	 1.3419703006	 0.1918831816	-0.544063
C	 0.0951557743	-0.0066320816	 0.0645237855	 0.285211
N	 1.155710931	-0.7114239855	-0.0575502368	-0.507806
C	-1.2367531673	-0.734497881	 0.1049076691	 0.203741
O	-2.2805229488	-0.1120929686	 0.148685727	-0.3134
C	-1.1983477175	-2.1761737107	 0.0785188109	 0.334857
C	-1.2560131786	-3.3778251796	 0.0661081882	-0.413616
H	 0.7004286189	 1.9595391254	-0.03642433	 0.256109
H	-1.0019506346	 1.6940339467	 0.1186155419	 0.273217
H	 1.9964334552	-0.1299536948	-0.0839296254	 0.20991
H	-1.2859623591	-4.4402925809	 0.0535369579	 0.215841
76.8148	155.5982	241.0779	304.9098	316.6606	418.2962	464.8704	517.2116	540.2495	619.1116	647.2339	718.6872	734.4681	825.3238	887.9266	1077.0456	1125.1236	1167.0711	1430.691	1600.5537	1720.1128	1745.9354	2220.3756	3446.9287	3495.9623	3584.169	3719.345
NC(=N)C(=O)C#C	NC(=N)C(=O)C#C	
InChI=1S/C4H4N2O/c1-2-3(7)4(5)6/h1H,(H3,5,6)	InChI=1S/C4H4N2O/c1-2-3(7)4(5)6/h1H,(H3,5,6)
