16
gdb 3603	5.68208	1.78299	1.52371	1.6422	61.59	-0.2285	0.0807	0.3092	824.8743	0.136038	-325.71242	-325.705244	-325.7043	-325.743924	25.856	
C	-0.178812664	 1.4907161299	-0.1358277538	-0.31056
N	 0.0280178916	 0.0584192048	 0.0329229549	-0.083753
C	 1.3711807477	-0.4671862473	-0.1643403101	-0.25873
C	 0.7595417968	-0.443027549	 1.1972128589	-0.007536
C	 1.3045833781	 0.4532633534	 2.2638976794	 0.071049
C	 0.7104006208	 0.4792662905	 3.6084353606	-0.18404
O	 1.9309023122	-0.2191549806	 3.361205506	-0.233129
H	 0.7001690202	 2.1150331926	 0.0883305708	 0.100748
H	-0.4625174759	 1.6787077512	-1.1761599839	 0.127207
H	-1.005009531	 1.8172135111	 0.5036784756	 0.125502
H	 1.4499035329	-1.3966275504	-0.7221149355	 0.119048
H	 2.1753375097	 0.245060958	-0.3522849714	 0.107216
H	 0.3553318175	-1.3696309755	 1.6028882911	 0.097104
H	 1.8404644922	 1.3407563986	 1.9298886612	 0.096768
H	 0.7973756558	 1.37425951	 4.2230234916	 0.116121
H	-0.1522340447	-0.1508018175	 3.8225649245	 0.116985
61.8906	152.8171	220.6206	232.609	332.878	364.6099	439.4561	541.8048	739.0026	819.3393	860.3868	898.9721	939.9492	956.8883	1033.0654	1086.3431	1099.9177	1119.5213	1129.5246	1152.1149	1163.48	1170.7787	1202.4598	1209.8042	1290.4902	1318.8742	1338.4844	1450.1697	1466.0283	1489.1748	1502.8854	1513.6546	1528.5651	2977.7124	3067.6622	3080.8142	3082.2755	3103.2418	3111.1257	3122.3709	3168.8392	3173.1887
CN1CC1C1CO1	CN1C[C@H]1[C@H]1CO1	
InChI=1S/C5H9NO/c1-6-2-4(6)5-3-7-5/h4-5H,2-3H2,1H3	InChI=1S/C5H9NO/c1-6-2-4(6)5-3-7-5/h4-5H,2-3H2,1H3/t4-,5+,6?/m0/s1
