11
gdb 3914	8.33522	1.99087	1.60703	4.6533	54.63	-0.2508	-0.0427	0.2081	693.134	0.080839	-339.467091	-339.461501	-339.460557	-339.496633	19.854	
O	-0.0799190783	-0.0378019062	 0.0005136545	-0.277055
C	-0.0183700841	 1.1718349787	 0.0092072271	 0.067935
C	 1.2222455034	 1.9367994658	 0.001833411	 0.118124
C	 1.3637340785	 3.3178937104	 0.0110140989	-0.104876
N	 2.68661156	 3.5612956356	-0.0015296954	-0.175125
N	 3.4419821003	 2.4347728642	-0.0183016667	-0.210949
C	 2.5582655992	 1.4510098489	-0.0160343393	-0.064762
H	-0.9433580092	 1.7919165876	 0.0237775436	 0.062739
H	 0.633112035	 4.1118605945	 0.0249740607	 0.155161
H	 3.1503694936	 4.4547110112	 0.0002213831	 0.284615
H	 2.8816182917	 0.4215187092	-0.0273302876	 0.144194
145.063	192.9149	280.1692	501.7038	559.1652	651.6769	695.4913	759.1983	815.8005	918.09	946.4706	1008.6919	1039.1744	1055.8548	1165.8631	1226.7347	1308.9419	1398.3867	1416.1718	1449.9928	1496.6657	1594.1183	1792.0887	2870.162	3260.6926	3266.4194	3668.5253
O=CC1=CNN=C1	O=Cc1c[nH]nc1	
InChI=1S/C4H4N2O/c7-3-4-1-5-6-2-4/h1-3H,(H,5,6)	InChI=1S/C4H4N2O/c7-3-4-1-5-6-2-4/h1-3H,(H,5,6)
