12
gdb 2907	5.83573	2.23257	1.8583	1.6767	50.61	-0.2518	-0.036	0.2157	658.1344	0.090843	-360.529678	-360.523608	-360.522664	-360.560282	20.771	
O	-0.5377123529	 0.5724888299	 0.749197737	-0.234722
C	 0.2616472161	 0.8543352084	-0.1044741102	 0.157373
C	 1.2851926666	 1.9809839059	 0.0160435502	-0.083685
C	 1.4584346682	 2.5213001932	 1.4518494581	-0.123232
O	 2.8355796815	 2.1920839386	 1.7742383248	-0.213556
C	 3.3398573622	 1.6167566436	 0.6649615874	 0.134668
N	 2.6144237101	 1.4605108374	-0.365627569	-0.282895
H	 0.3208176487	 0.3002908486	-1.0641046106	 0.1051
H	 0.9823070147	 2.7579781592	-0.6994469783	 0.114974
H	 1.3407382404	 3.6036759284	 1.5326997332	 0.12572
H	 0.7966291564	 2.0198056946	 2.161119501	 0.149614
H	 4.3793910583	 1.3187837721	 0.7454370063	 0.150643
75.6473	114.6931	252.2429	345.9869	531.5591	629.8168	697.7232	833.0113	896.0878	931.0912	954.1302	969.0371	1016.9966	1074.1523	1095.4758	1153.4248	1213.1127	1250.2872	1311.2386	1341.4951	1369.8794	1407.6552	1518.7241	1694.189	1832.7491	2926.5025	3013.6196	3075.1303	3130.0379	3219.6157
O=CC1COC=N1	O=C[C@H]1COC=N1	
InChI=1S/C4H5NO2/c6-1-4-2-7-3-5-4/h1,3-4H,2H2	InChI=1S/C4H5NO2/c6-1-4-2-7-3-5-4/h1,3-4H,2H2/t4-/m0/s1
