16
gdb 2189	3.83395	2.55504	1.75926	2.7873	61.81	-0.2579	0.0309	0.2888	750.7001	0.136421	-325.788368	-325.781013	-325.780069	-325.819646	26.797	
C	 0.1737048649	 1.4855147757	-0.2398825661	-0.401498
C	-0.0563035006	 0.0330780588	 0.1143935565	 0.132814
O	 0.6145095245	-0.8707863535	-0.8350830676	-0.271041
C	 1.3614311031	-1.4458171042	 0.1694462101	 0.436026
N	 2.2483890845	-2.3319576723	 0.1237600609	-0.548552
C	 0.7388433892	-0.6243259973	 1.2814693003	-0.1421
C	 1.6787231693	 0.2007768966	 2.1516807065	-0.407623
H	 1.2395288041	 1.7203172328	-0.2981128334	 0.130357
H	-0.2785164713	 1.7109657376	-1.2102181534	 0.133752
H	-0.2870994514	 2.1376296502	 0.5095310741	 0.124655
H	-1.1259183287	-0.1989416127	 0.1299690994	 0.091846
H	 2.4054535323	-2.6512025517	-0.8338973705	 0.225153
H	 0.0916256793	-1.2406390682	 1.9128130269	 0.107134
H	 2.3505386707	 0.8224065032	 1.5542575008	 0.126316
H	 1.1191162305	 0.8515716234	 2.8309611579	 0.118569
H	 2.2989108795	-0.4681520184	 2.7546910374	 0.144191
86.272	194.3619	206.2225	224.3346	258.8356	353.4525	454.4926	501.2875	642.1088	728.9199	773.8572	831.428	866.4844	872.6149	1001.2516	1016.2207	1050.3698	1071.7243	1077.1146	1159.5985	1170.7476	1236.1106	1248.5443	1334.9158	1362.0091	1383.1083	1410.6107	1414.53	1480.0059	1489.9262	1497.5447	1504.9862	1820.6209	3040.7275	3045.0874	3053.462	3069.9213	3111.2644	3114.3728	3120.8452	3128.6022	3472.931
CC1OC(=N)C1C	C[C@H]1O[C]([NH])[C@H]1C	
InChI=1S/C5H9NO/c1-3-4(2)7-5(3)6/h3-4,6H,1-2H3	InChI=1S/C5H9NO/c1-3-4(2)7-5(3)6/h3-4,6H,1-2H3/t3-,4+/m0/s1
