19
gdb 2367	4.10259	1.83366	1.49805	1.758	67.63	-0.2563	0.0865	0.3428	905.0786	0.169584	-310.912792	-310.904256	-310.903312	-310.9455	30.848	
C	-0.7536745193	-1.365559459	-0.8802461454	-0.386712
C	-0.8735371741	-1.6724436698	 0.6199446669	 0.000848
C	-1.0297719347	-3.1774784818	 0.8808916385	-0.391262
C	 0.3396610172	-1.1371125196	 1.35241036	 0.08237
O	 0.464332869	 0.2838599236	 1.4837943031	-0.27295
C	 0.3296792863	-0.4961828389	 2.6791330958	 0.073233
C	-0.8954249966	-0.2647733357	 3.5267667908	-0.420237
H	 0.119489306	-1.8670980904	-1.3144247575	 0.110888
H	-1.639815713	-1.7103979969	-1.4227037635	 0.10922
H	-0.6431214787	-0.2905245301	-1.047520769	 0.131658
H	-1.7612377653	-1.1551773196	 0.9999421843	 0.076521
H	-0.1488649947	-3.7301612576	 0.5332573252	 0.115024
H	-1.1579313977	-3.390873442	 1.9469964085	 0.11453
H	-1.8993850124	-3.5760995046	 0.3491856402	 0.115466
H	 1.2732767798	-1.6264195723	 1.0560135274	 0.078583
H	 1.25710459	-0.5631206	 3.2534582736	 0.083883
H	-0.8008005406	 0.6804103482	 4.0718893614	 0.129376
H	-1.8060115918	-0.216248338	 2.9267855577	 0.129274
H	-1.0045220594	-1.0657335255	 4.266291442	 0.120287
60.1197	144.2476	184.0335	216.6787	222.9104	251.6078	320.852	382.1086	398.0881	487.5635	549.6722	775.3662	799.21	877.3721	928.7103	939.8151	969.5269	990.4782	1007.1999	1082.4469	1138.77	1152.6161	1179.8429	1187.6998	1211.6372	1303.3751	1316.058	1341.713	1397.0658	1401.9462	1414.0078	1423.9765	1470.3893	1487.6916	1490.8278	1490.8992	1502.3947	1506.5924	1519.2774	3026.9779	3030.0203	3037.4198	3044.0052	3055.8415	3076.3553	3091.7636	3097.2275	3098.738	3105.1592	3115.337	3135.0681
CC(C)C1OC1C	CC(C)[C@H]1O[C@H]1C	
InChI=1S/C6H12O/c1-4(2)6-5(3)7-6/h4-6H,1-3H3	InChI=1S/C6H12O/c1-4(2)6-5(3)7-6/h4-6H,1-3H3/t5-,6+/m0/s1
