13
gdb 3851	3.87834	3.26989	1.79682	2.3237	55.73	-0.1981	0.0405	0.2386	662.9094	0.105077	-336.822591	-336.815977	-336.815033	-336.852707	24.543	
N	 0.0948173774	 1.4106591383	 0.0634927094	-0.606937
C	 0.0006758335	 0.0223214523	 0.010596302	 0.373869
C	-1.1264016675	-0.7848756738	 0.0272079813	 0.064882
N	-2.4529060021	-0.263075037	 0.0128414745	-0.624424
C	-0.6102003513	-2.1044696232	 0.0397733094	-0.057503
N	 0.715639853	-2.1284628199	 0.0246522296	-0.242013
N	 1.0668618373	-0.8117235048	 0.0161981291	-0.253575
H	 0.698908143	 1.8047849748	-0.6488039484	 0.245696
H	-0.8378737871	 1.8006380196	-0.0301045183	 0.258998
H	-2.9449729321	-0.4623176647	 0.8785709661	 0.239459
H	-3.0045665007	-0.6680761233	-0.7366772791	 0.237777
H	-1.1612580209	-3.0352318935	 0.0464385493	 0.097474
H	 2.0403277373	-0.5649991548	 0.0585680451	 0.266297
156.1742	247.0778	260.5613	296.9942	308.4284	434.8708	466.8357	662.3394	680.1179	693.7692	753.1182	827.2788	846.6864	882.0127	948.817	1092.5119	1117.5655	1200.7385	1224.9902	1254.5209	1355.5048	1385.5229	1456.5167	1563.4693	1623.3344	1648.1899	1681.8811	3227.665	3490.9861	3505.8735	3555.5029	3594.0508	3679.6913
NC1=C(N)C=NN1	Nc1c(N)cn[nH]1	
InChI=1S/C3H6N4/c4-2-1-6-7-3(2)5/h1H,4H2,(H3,5,6,7)	InChI=1S/C3H6N4/c4-2-1-6-7-3(2)5/h1H,4H2,(H3,5,6,7)
