14
gdb 1079	6.48147	2.87979	2.04562	2.0543	64.43	-0.196	0.0558	0.2518	623.248	0.116366	-287.441165	-287.435599	-287.434654	-287.47071	21.109	
C	-0.0098923854	 1.5634582085	-0.0209051627	-0.169495
C	 1.5556812415	 1.4066066485	-0.1384309326	-0.377721
C	 1.3159338466	-0.0145488935	 0.347985687	 0.344146
C	 1.6203311644	-1.3007106796	 0.7320519467	-0.331175
C	 0.3570189851	-1.8934566848	 1.0597865389	-0.127579
C	-0.6582920787	-0.9668078265	 0.8688987477	-0.160542
N	-0.0296344517	 0.1652242607	 0.4344485483	 0.029576
H	-0.3576700437	 2.2795724922	 0.7291962046	 0.124818
H	-0.5396433405	 1.7310292622	-0.9630865804	 0.124821
H	 1.9455773899	 1.5129867727	-1.1544711077	 0.122278
H	 2.1265796723	 2.0584881347	 0.5284997462	 0.122276
H	 2.5865090801	-1.7773697449	 0.7826346894	 0.092748
H	 0.2094752757	-2.9068143003	 1.4039173548	 0.09034
H	-1.7244952557	-1.0404060799	 1.0074489698	 0.115509
72.2609	232.3862	456.0182	602.2536	643.2254	691.9839	712.6327	757.7513	809.7163	810.0238	823.3936	883.307	966.0472	1027.9735	1056.0241	1056.6643	1112.837	1139.5275	1178.7862	1219.7547	1237.084	1271.1386	1314.5727	1414.4362	1443.0998	1472.9104	1490.3597	1525.3219	1579.6862	3050.4115	3059.0272	3094.3367	3109.2267	3235.8253	3257.8202	3270.9998
C1CC2=CC=CN12	C1Cc2cccn12	
InChI=1S/C6H7N/c1-2-6-3-5-7(6)4-1/h1-2,4H,3,5H2	InChI=1S/C6H7N/c1-2-6-3-5-7(6)4-1/h1-2,4H,3,5H2
