16
gdb 3573	4.67858	2.87505	2.38605	1.5022	63.14	-0.2135	0.0645	0.2781	632.9391	0.137486	-288.538806	-288.532658	-288.531714	-288.568448	24.315	
C	-0.0723454747	 1.6028824475	-0.0055548818	-0.437418
C	 0.042769246	 0.0877470759	-0.132202628	 0.025976
C	 0.5365032298	-0.7796289656	-1.230075065	-0.061925
C	 1.8303702728	-0.389032661	-1.9660699452	-0.070937
C	 2.4400000688	 0.9031015454	-1.4966116341	-0.301128
C	 2.4794335268	-0.3104644024	-0.6051056768	 0.000982
N	 1.2291544385	-0.7737495466	 0.1176705495	-0.170323
H	-0.156644096	 2.1048562496	-0.9728798778	 0.134784
H	-0.9738014786	 1.8440893867	 0.5646687694	 0.11771
H	 0.7751094286	 2.0319957073	 0.5348318414	 0.140317
H	-0.7855789842	-0.4085309769	 0.3736993346	 0.102015
H	-0.0235842162	-1.6567569527	-1.5444075311	 0.093448
H	 2.162766246	-0.9085779615	-2.8546157077	 0.09388
H	 3.4087273417	 1.0960805015	-1.9512350239	 0.114656
H	 1.8759687911	 1.8010508873	-1.3009015031	 0.115643
H	 3.4090810397	-0.7308667745	-0.2438022404	 0.102321
116.8167	254.0194	290.3857	394.4923	470.8484	639.5203	667.4255	694.267	711.65	765.6103	867.461	888.3122	925.1906	930.2771	988.873	1011.7118	1055.6413	1064.3863	1070.0856	1077.7133	1088.9626	1109.5783	1151.7493	1193.8131	1267.7504	1285.612	1338.4554	1369.8597	1411.1172	1440.662	1487.0378	1503.504	1516.6639	3045.8203	3092.762	3114.6495	3121.0932	3135.9469	3137.567	3189.3526	3203.3363	3259.4038
CC1C2C3CC3N12	C[C@H]1[C@H]2[C@H]3C[C@H]3N12	
InChI=1S/C6H9N/c1-3-6-4-2-5(4)7(3)6/h3-6H,2H2,1H3	InChI=1S/C6H9N/c1-3-6-4-2-5(4)7(3)6/h3-6H,2H2,1H3/t3-,4-,5+,6-,7?/m0/s1
