17
gdb 3468	5.0394	2.41485	2.38201	1.7102	63.33	-0.2323	0.0939	0.3262	666.3382	0.150345	-309.695312	-309.68929	-309.688346	-309.724767	24.105	
C	-0.1620687732	 1.5426950801	 0.0403203839	-0.436755
C	 0.0257953567	 0.0320255291	 0.0240472464	 0.049331
C	 0.802550687	-0.6058904219	-1.1845462268	-0.073041
C	 2.1207053071	-0.2354652426	-0.4309359825	-0.243185
C	 1.2312575486	-0.5971214558	 0.7813602656	 0.104646
O	 1.0094332124	-2.0081683132	 0.6123280119	-0.282962
C	 0.6947579905	-2.0861047489	-0.8007862554	-0.082801
H	 0.7505556845	 2.096024789	-0.1960033446	 0.118104
H	-0.9239134596	 1.8407742978	-0.6884282558	 0.11867
H	-0.5047427719	 1.8771735104	 1.0257678086	 0.119492
H	-0.923824265	-0.4596879051	 0.2625923885	 0.071193
H	 0.612431817	-0.3324689808	-2.2225070667	 0.067284
H	 3.0012683761	-0.8606252922	-0.5973674485	 0.098429
H	 2.3829830139	 0.8189901993	-0.5011174281	 0.103004
H	 1.4837327429	-0.3877221119	 1.8203811175	 0.074228
H	-0.3100920073	-2.5024534842	-0.9394270325	 0.097447
H	 1.4211949103	-2.728706969	-1.3125197714	 0.096916
181.1341	262.4374	289.2023	364.9641	482.2107	522.3999	654.5191	780.6559	825.8222	847.4911	876.8514	915.727	939.5938	960.8185	984.9873	1024.9587	1037.0529	1065.7483	1091.5477	1117.8537	1124.4224	1141.8076	1188.7705	1222.7444	1246.5122	1263.5383	1272.1208	1287.9233	1357.5415	1393.4124	1415.5892	1489.6125	1496.7758	1508.2888	1529.2744	3019.4976	3032.4156	3043.5998	3059.4169	3076.2833	3089.7541	3111.2616	3117.7275	3128.6765	3150.9827
CC1C2CC1OC2	C[C@H]1[C@H]2C[C@@H]1OC2	
InChI=1S/C6H10O/c1-4-5-2-6(4)7-3-5/h4-6H,2-3H2,1H3	InChI=1S/C6H10O/c1-4-5-2-6(4)7-3-5/h4-6H,2-3H2,1H3/t4-,5-,6-/m0/s1
