11
gdb 2510	3.40959	2.35867	1.45933	4.3677	51.87	-0.3184	-0.0403	0.2781	775.2676	0.076999	-339.426816	-339.419476	-339.418532	-339.458581	24.111	
C	 0.1087042396	 1.3751103475	 0.0637809362	-0.254345
O	-0.1579669221	-0.0121876655	-0.1220568946	-0.219596
C	 0.5706182299	-0.5848542368	-1.1717070796	-0.130343
C	 2.0249527971	-0.6613008031	-0.8789799398	 0.289827
N	 3.1542055185	-0.6638914813	-0.6394012308	-0.300368
C	 0.030363783	-1.930908867	-1.4308143279	 0.308219
N	-0.396139763	-2.9762453014	-1.6667147754	-0.289114
H	 1.1545584099	 1.5489259943	 0.3451885931	 0.147231
H	-0.1232424264	 1.9467553035	-0.8455834873	 0.126082
H	-0.5443749453	 1.7008038015	 0.873569465	 0.157534
H	 0.4610627087	 0.0019985881	-2.1004746489	 0.164874
95.0792	134.8551	174.1192	187.3981	256.5776	367.1308	377.741	525.6125	575.2879	605.0249	882.9062	986.9821	1019.9793	1138.1612	1180.2962	1213.1584	1325.8087	1342.0312	1477.4314	1487.8015	1504.674	2364.2417	2382.815	2964.4262	3004.5744	3071.9396	3152.5247
COC(C#N)C#N	COC(C#N)C#N	
InChI=1S/C4H4N2O/c1-7-4(2-5)3-6/h4H,1H3	InChI=1S/C4H4N2O/c1-7-4(2-5)3-6/h4H,1H3
