8
gdb 3815	10.27057	2.02881	1.69415	1.8736	48.91	-0.3112	-0.0993	0.212	633.6225	0.044061	-354.272548	-354.26739	-354.266446	-354.301614	17.733	
N	 0.0542253595	-1.1538156324	-0.0042583132	-0.30381
C	 0.0104521614	 0.0021410991	 0.0030105951	 0.256234
C	-0.071613647	 1.4132221586	 0.0118324098	 0.335049
C	-1.1353047077	 2.264992249	 0.0300871557	-0.191084
N	-0.6135434087	 3.5338270573	 0.0309409374	-0.09214
N	 0.643371206	 3.4992224417	 0.0133268958	 0.02049
O	 1.0542050505	 2.1371170664	-0.000466601	-0.199873
H	-2.1927971541	 2.0671505604	 0.0430161905	 0.175133
178.5327	180.428	485.1023	528.9283	581.6163	688.7119	690.9347	716.5627	859.4833	985.7291	1047.7629	1118.1024	1241.0623	1345.0137	1442.357	1583.4727	2362.2331	3304.468
N#CC1=CN=NO1	N#Cc1cnno1	
InChI=1S/C3HN3O/c4-1-3-2-5-6-7-3/h2H	InChI=1S/C3HN3O/c4-1-3-2-5-6-7-3/h2H
