11
gdb 1819	6.83462	2.33617	1.74105	1.033	56.76	-0.2673	-0.0808	0.1865	652.7378	0.080633	-339.490841	-339.485274	-339.484329	-339.52016	20.745	
N	-0.0937488793	 1.3137077008	 0.0099749461	-0.51829
C	-0.0051178712	 0.0441796667	 0.0032367889	 0.380739
N	 1.1160393295	-0.7855565333	-0.0072567365	-0.393378
C	 0.7638546526	-2.1375664997	-0.0119742593	 0.404863
O	 1.5292897357	-3.0707730857	-0.0208543167	-0.348143
C	-0.7335469576	-2.1398681054	-0.003214855	-0.198553
C	-1.1685339914	-0.8761809483	 0.0054720356	-0.095022
H	 0.8264471798	 1.7590375743	 0.0068569438	 0.221497
H	 2.0729883118	-0.4727760425	-0.011224087	 0.264147
H	-1.3016688289	-3.058408291	-0.0043807153	 0.139502
H	-2.1812541308	-0.499904306	 0.0132031155	 0.142637
136.916	300.0324	373.0084	452.4947	523.3964	632.3614	641.3971	694.6645	771.5694	850.2604	894.1653	916.9726	930.5453	981.7605	1078.4472	1103.6601	1198.7099	1322.3634	1348.0466	1398.5581	1636.6466	1743.9238	1839.5813	3242.4736	3264.0994	3455.3968	3662.2322
N=C1NC(=O)C=C1	[NH]C1=C[CH]C(=O)N1	
InChI=1S/C4H4N2O/c5-3-1-2-4(7)6-3/h1-2H,(H2,5,6,7)	InChI=1S/C4H4N2O/c5-3-1-2-4(7)6-3/h1-2H,(H2,5,6,7)
