19
gdb 4131	3.24448	1.47986	1.10408	0.533	75.22	-0.2338	0.0151	0.249	1111.5379	0.16318	-365.015586	-365.006211	-365.005266	-365.050654	33.64	
C	 0.1290695977	 1.5088388763	-0.4898347383	-0.390004
C	-0.0155468007	 0.0824413325	-0.0045431653	 0.002084
C	 1.1487953705	-0.876597967	-0.0566365495	-0.290073
C	 0.5624278819	-0.4544398368	 1.2828473693	-0.078065
C	 1.3825476223	 0.2983248383	 2.2717346981	 0.338627
C	 2.3243322349	-0.4887731999	 3.148847768	-0.466368
N	 1.2395974414	 1.5667252265	 2.3540509562	-0.174922
O	 2.0902360861	 2.1154552438	 3.3323592168	-0.401827
H	 1.1246198518	 1.9065282401	-0.287801316	 0.123896
H	-0.0463119742	 1.5527229813	-1.5710615763	 0.102366
H	-0.591040803	 2.1709868791	-0.0001798804	 0.121217
H	-0.9776630574	-0.3599936553	-0.253405328	 0.083214
H	 0.9967782218	-1.8965706139	-0.3926940253	 0.108449
H	 2.1134456214	-0.4553499209	-0.3226453387	 0.114899
H	-0.0339006907	-1.2288260214	 1.7637316998	 0.093646
H	 3.3616161623	-0.1958087545	 2.9542810375	 0.144836
H	 2.1347168752	-0.2726754609	 4.2045417248	 0.145801
H	 2.2236477251	-1.5608507086	 2.9711798583	 0.118371
H	 1.8643322236	 3.0503143515	 3.290532629	 0.303852
28.5179	53.4308	145.8226	170.0821	229.9478	286.4297	302.5596	345.353	380.0215	429.944	498.2933	563.5883	649.2681	761.4379	780.1959	859.4328	903.0285	927.7952	969.619	1019.3211	1029.6208	1040.9314	1060.6432	1102.2279	1129.8436	1151.6363	1200.0396	1205.5657	1260.8789	1375.7352	1397.3502	1403.0776	1425.1273	1429.9667	1474.4601	1483.7621	1487.58	1490.5445	1502.9645	1722.4052	3034.6526	3043.5401	3097.5501	3101.4546	3107.1333	3122.0865	3126.8619	3137.4645	3142.1651	3212.7984	3823.5482
CC1CC1C(C)=NO	C[C@H]1C[C@H]1C(=NO)C	
InChI=1S/C6H11NO/c1-4-3-6(4)5(2)7-8/h4,6,8H,3H2,1-2H3	InChI=1S/C6H11NO/c1-4-3-6(4)5(2)7-8/h4,6,8H,3H2,1-2H3/t4-,6+/m0/s1
