14
gdb 3141	4.38428	2.7132	1.95743	2.6185	59.32	-0.2562	0.0256	0.2819	669.8761	0.114358	-324.559213	-324.553035	-324.552091	-324.589151	23.187	
N	-0.0828504764	 1.192775377	-0.2761263306	-0.560974
C	-0.0471459161	-0.0311745109	-0.0066933121	 0.397115
O	 0.9929093849	-0.8411827442	 0.4203437956	-0.267575
C	 0.1215148533	-2.019427244	 0.4580881576	-0.150345
C	-1.0358862913	-1.1447166366	-0.0115993642	 0.208854
C	-2.4752625274	-1.0926019574	 0.4157552258	-0.314386
C	-2.1249273915	-1.3974080339	-1.0152418511	-0.314385
H	 0.8274828577	 1.6355495214	-0.1476137518	 0.228633
H	 0.472663801	-2.7861085073	-0.2379982131	 0.12178
H	 0.0539445026	-2.4216568865	 1.4726269143	 0.121783
H	-2.8415969298	-1.9022756984	 1.0381084694	 0.121848
H	-2.87760714	-0.1134565429	 0.6504364857	 0.142901
H	-2.2872934053	-0.6270644706	-1.760822195	 0.142901
H	-2.2522406817	-2.4150463356	-1.3692195402	 0.12185
146.5936	207.625	217.9022	329.9734	466.414	596.2921	683.9976	757.8567	785.3705	838.6911	868.9803	891.8782	956.1252	957.3344	994.7523	1018.6255	1065.0957	1078.133	1102.4437	1146.4272	1196.3234	1197.201	1268.6887	1325.9691	1418.1012	1458.292	1502.0444	1516.8225	1827.9275	3053.3736	3110.5495	3133.9653	3136.317	3218.7015	3232.6902	3489.6659
N=C1OCC11CC1	[NH][C]1OCC21CC2	
InChI=1S/C5H7NO/c6-4-5(1-2-5)3-7-4/h6H,1-3H2	InChI=1S/C5H7NO/c6-4-5(1-2-5)3-7-4/h6H,1-3H2
