13
gdb 3300	6.14629	2.14357	1.90492	2.0431	59.34	-0.2502	0.0427	0.2929	678.4733	0.100864	-307.237456	-307.231294	-307.23035	-307.267343	23.294	
C	 0.0250696884	-1.2428196705	-0.0907632295	-0.460773
C	 0.0186077585	-0.0427092025	-0.0199176535	 0.339255
C	 0.0079699981	 1.4030151771	 0.0644857373	-0.20361
C	-0.2383762158	 2.0931145807	 1.4697940433	-0.264619
C	 1.1090260102	 2.8038666132	 1.3000461676	 0.033368
O	 2.1068635791	 1.7839443445	 1.1756903106	-0.23177
C	 1.3685693041	 2.1426376845	 0.0125719631	 0.024798
H	 0.0387325069	-2.3028582979	-0.1489932351	 0.196883
H	-0.6785057772	 1.8256153555	-0.6764122002	 0.108887
H	-1.1033740381	 2.7589903826	 1.4516619314	 0.112459
H	-0.2986268164	 1.4206900357	 2.3266782425	 0.125538
H	 1.4281358892	 3.7682991423	 1.6761138965	 0.110008
H	 1.926022083	 2.4514102148	-0.8639631041	 0.109576
121.8366	171.468	304.5544	420.8306	494.1827	593.6354	619.3515	630.5451	726.6121	795.805	845.4135	865.8289	908.8748	937.5049	1000.0991	1019.8475	1049.0723	1085.1898	1144.6143	1192.9083	1233.6347	1238.6969	1268.0814	1335.801	1391.4699	1472.2805	2237.0842	3056.6839	3079.9799	3142.8299	3184.3387	3200.5797	3504.7482
C#CC1CC2OC12	C#C[C@H]1C[C@H]2O[C@@H]12	
InChI=1S/C6H6O/c1-2-4-3-5-6(4)7-5/h1,4-6H,3H2	InChI=1S/C6H6O/c1-2-4-3-5-6(4)7-5/h1,4-6H,3H2/t4-,5+,6-/m0/s1
