10
gdb 1369	9.8734	1.36893	1.21113	4.818	49.13	-0.2777	-0.1201	0.1575	868.7572	0.063841	-359.328735	-359.321571	-359.320626	-359.360936	22.981	
O	-0.155583624	 0.0126986775	 0.0024922771	-0.186949
C	-0.0345730738	 1.2032943006	 0.0074115236	 0.092223
C	 1.3579785544	 1.8847441917	-0.0013764439	 0.314921
O	 2.367645974	 1.2413519553	-0.0141801766	-0.225897
C	 1.3016288328	 3.4181750434	 0.0072500245	-0.479284
C	 2.6105299397	 4.0534940661	-0.0006273675	 0.293749
N	 3.6429198037	 4.5694523375	-0.0067422862	-0.279764
H	-0.9081803322	 1.893089253	 0.0180872778	 0.099088
H	 0.7169609518	 3.7534556474	-0.8606383836	 0.185972
H	 0.7319030735	 3.7442792675	 0.8884606249	 0.185941
46.8711	98.1188	130.2128	255.5154	367.9218	370.9576	443.4418	452.3047	730.1525	830.6821	874.1523	946.6602	1018.895	1045.5135	1211.0426	1329.5898	1410.6979	1429.6183	1828.5579	1859.3702	2378.5839	2882.6421	3025.1586	3056.4667
O=CC(=O)CC#N	O=CC(=O)CC#N	
InChI=1S/C4H3NO2/c5-2-1-4(7)3-6/h3H,1H2	InChI=1S/C4H3NO2/c5-2-1-4(7)3-6/h3H,1H2
