17
gdb 1186	4.31227	1.81143	1.78469	2.7111	60.58	-0.2517	-0.0256	0.2262	811.414	0.144209	-346.857623	-346.848665	-346.847721	-346.892209	30.81	
C	 0.0198339754	 1.4242907719	 0.1582752887	-0.246756
O	 0.0085398028	 0.0231286457	-0.0030816213	-0.281983
C	 0.5791895327	-0.5045474142	-1.1979726292	 0.278857
C	-0.1754682701	-0.0616845361	-2.4628280037	-0.426186
C	 2.085345062	-0.2153647888	-1.3146746032	-0.426081
C	 0.3909205919	-2.0182013808	-1.0291731851	 0.144295
O	 0.7454534233	-2.8316570427	-1.8407237999	-0.263018
H	 1.0374586927	 1.8374632285	 0.1783137358	 0.110587
H	-0.5517553712	 1.9425251003	-0.6236428219	 0.11063
H	-0.4531903833	 1.6272157312	 1.1223234721	 0.131891
H	 0.0213814694	 0.9878245776	-2.6985227257	 0.117691
H	 0.1522813466	-0.671919055	-3.3079814549	 0.1429
H	-1.2535666239	-0.1950204343	-2.3331565289	 0.125796
H	 2.5964391448	-0.4574150941	-0.3781565839	 0.125796
H	 2.5081201071	-0.8313073097	-2.1121534296	 0.142846
H	 2.272947305	 0.8349711473	-1.5542072325	 0.117738
H	-0.1089837051	-2.2983629971	-0.0769915366	 0.094996
12.4244	80.0759	191.4632	217.5229	233.5642	268.1819	301.3007	312.5723	362.0996	431.4954	448.3433	605.4952	752.6354	870.1744	910.3091	956.9674	983.1671	1037.0137	1116.4932	1182.2005	1197.9318	1198.0457	1218.0621	1276.6727	1381.9048	1384.6133	1408.0813	1477.0855	1479.4098	1483.3367	1499.237	1501.2638	1508.2405	1515.9713	1838.5657	2908.6527	2998.9796	3041.1038	3046.2704	3052.7451	3112.5616	3116.4406	3119.0667	3129.1568	3133.5542
COC(C)(C)C=O	COC(C)(C)C=O	
InChI=1S/C5H10O2/c1-5(2,4-6)7-3/h4H,1-3H3	InChI=1S/C5H10O2/c1-5(2,4-6)7-3/h4H,1-3H3
