21
gdb 2723	12.26849	0.79261	0.76578	0.9111	72.96	-0.2477	0.0913	0.3391	1556.5634	0.192997	-312.124533	-312.115001	-312.114056	-312.159241	32.611	
C	-0.0155513175	 1.5548442894	 0.0027544329	-0.37873
C	 0.012774342	 0.0241000302	-0.0181630182	-0.164866
C	 0.7169528818	-0.5420754857	-1.2552334552	-0.177182
C	 0.7453544992	-2.0641148249	-1.2762995429	-0.048022
O	 1.4098446297	-2.4921192956	-2.4450459992	-0.243694
C	 1.488617055	-3.8964417269	-2.5615452184	-0.026186
C	 2.2203341226	-4.2376795889	-3.8487133807	-0.383914
H	 0.9987796382	 1.9687854499	-0.0052724021	 0.115031
H	-0.5401389541	 1.9521821564	-0.8731482059	 0.115031
H	-0.5231389033	 1.9330552706	 0.8955755551	 0.110568
H	 0.5127307777	-0.3445977263	 0.887401247	 0.095382
H	-1.014688018	-0.3610683772	 0.0254932432	 0.095376
H	 0.2183528729	-0.1890163233	-2.1664204418	 0.102416
H	 1.7487266876	-0.1723498959	-1.3028164446	 0.102432
H	 1.2604748623	-2.4507054634	-0.3787349519	 0.079773
H	-0.2827871376	-2.4674110503	-1.249992417	 0.079757
H	 2.0179449734	-4.3225638752	-1.6914664655	 0.081882
H	 0.4761687447	-4.3366102609	-2.5641571606	 0.081896
H	 2.2972612777	-5.3225337658	-3.9686402913	 0.112276
H	 1.6877794067	-3.8292154933	-4.7123489163	 0.125398
H	 3.2296520289	-3.816367833	-3.8394090368	 0.125379
61.1968	76.1827	103.9167	136.0712	146.9719	247.0369	248.6722	252.2539	319.0671	446.5676	500.1543	745.3128	813.5496	823.5462	883.2157	922.7782	954.4911	1018.5736	1048.9011	1072.3757	1117.3448	1158.4179	1175.0462	1179.2503	1206.0858	1253.4807	1293.9142	1295.0444	1311.6686	1324.705	1381.9603	1395.4259	1409.7836	1414.5073	1454.7237	1483.8001	1488.3514	1496.1618	1499.644	1499.9317	1509.9272	1519.832	1539.973	2935.4557	2951.349	2961.9534	2969.5224	3013.0837	3028.2034	3032.3404	3038.7164	3044.16	3072.5241	3098.0403	3102.2424	3118.231	3120.3502
CCCCOCC	CCCCOCC	
InChI=1S/C6H14O/c1-3-5-6-7-4-2/h3-6H2,1-2H3	InChI=1S/C6H14O/c1-3-5-6-7-4-2/h3-6H2,1-2H3
