17
gdb 1313	3.37636	2.56399	2.12543	2.2041	60.07	-0.2415	0.065	0.3065	721.569	0.146152	-346.840635	-346.832595	-346.831651	-346.87248	29.266	
C	-0.1318961279	 1.5350510794	 0.0629900648	-0.414918
C	-0.0029454139	 0.017360969	 0.0562354324	 0.407265
C	-1.3036154945	-0.6758382854	-0.3184432227	-0.432589
O	 1.0807122111	-0.4067308137	-0.8302835024	-0.322803
C	 1.9190723845	-0.7799980909	 0.2780385468	-0.105332
C	 0.7593352808	-0.5748345778	 1.2745507651	 0.021591
O	 0.9392779572	 0.3263636129	 2.3394868907	-0.423742
H	 0.8126660867	 2.0084802644	 0.3370276583	 0.126154
H	-0.4214488247	 1.8793984261	-0.9347415985	 0.116166
H	-0.8927375098	 1.8583855096	 0.7795940641	 0.119297
H	-1.6428317941	-0.3441975509	-1.3050699574	 0.124044
H	-1.1692848862	-1.7608380095	-0.3524064467	 0.114456
H	-2.0880869818	-0.4421357631	 0.4095081514	 0.117899
H	 2.3212233985	-1.7943781854	 0.1694553339	 0.095551
H	 2.7457310145	-0.0739590754	 0.4374276492	 0.096984
H	 0.3174777811	-1.5181926733	 1.620353085	 0.070896
H	 1.3628980687	-0.1387703659	 3.0669391459	 0.289083
73.977	180.222	212.9243	217.2661	249.9459	292.5936	347.078	404.7006	438.7868	534.454	644.8472	769.0436	855.1348	908.7166	937.5048	984.2065	993.8712	1021.4612	1072.9236	1133.4268	1165.2806	1175.8489	1181.9412	1260.7944	1284.0487	1316.2125	1333.7424	1398.2925	1410.5472	1439.7057	1472.993	1477.1971	1494.9461	1503.1553	1517.1617	3003.3991	3013.5337	3033.1263	3045.3383	3057.0959	3104.5891	3111.9742	3115.4725	3135.8012	3828.1979
CC1(C)OCC1O	CC1(C)OC[C@H]1O	
InChI=1S/C5H10O2/c1-5(2)4(6)3-7-5/h4,6H,3H2,1-2H3	InChI=1S/C5H10O2/c1-5(2)4(6)3-7-5/h4,6H,3H2,1-2H3/t4-/m1/s1
