10
gdb 4335	4.1861	2.08249	1.39067	2.4911	50.84	-0.2953	-0.0756	0.2197	774.2143	0.062156	-450.668179	-450.6623	-450.661356	-450.698519	21.293	
O	-0.0738530022	 1.2903315157	 0.0095418575	-0.35615
C	 0.007757091	-0.0302758462	 0.0027659255	 0.469955
N	 1.1886773717	-0.585073182	-0.0067586137	-0.420976
C	 1.2743769749	-1.9422577628	-0.0141294295	 0.461324
O	 2.2381879128	-2.6354802001	-0.0231355987	-0.313391
O	-0.0127605666	-2.6451428423	-0.0105074172	-0.195497
C	-1.1216317618	-1.9362993508	-0.0007274246	 0.168626
N	-1.2141857693	-0.650973288	 0.0063254209	-0.304199
H	 0.8355256175	 1.6270809062	 0.0060570302	 0.322599
H	-2.017694128	-2.5533059796	 0.0011416798	 0.16771
120.4297	183.2385	400.8616	424.6236	534.8855	563.8993	596.9307	652.185	659.5098	772.6966	820.4407	871.9163	958.6441	1016.5589	1141.7601	1240.253	1313.7001	1398.0074	1500.8424	1579.9322	1677.3917	1926.85	3176.9766	3750.6511
OC1=NC(=O)OC=N1	Oc1nc(=O)ocn1	
InChI=1S/C3H2N2O3/c6-2-4-1-8-3(7)5-2/h1H,(H,5,6,7)	InChI=1S/C3H2N2O3/c6-2-4-1-8-3(7)5-2/h1H,(H,5,6,7)
