13
gdb 4690	5.98477	1.4038	1.13839	2.4284	75.37	-0.1846	-0.004	0.1806	979.7332	0.095432	-361.460668	-361.453402	-361.452457	-361.491852	27.529	
N	 0.1588736811	 1.3285784091	 0.1667872308	-0.605151
C	-0.0537487233	-0.0307067587	 0.0510251984	 0.366143
C	-1.1840837231	-0.8035709775	 0.0079813174	-0.237415
C	-0.7228980387	-2.151769783	-0.0225953686	-0.265465
C	 0.6429145284	-2.1203097196	 0.0005323641	 0.198984
O	 1.0565916621	-0.7922305577	 0.0473849608	-0.203934
C	 1.6306040789	-3.1121205228	-0.0175181977	 0.249464
C	 2.4742089418	-3.9741696973	-0.0336000507	-0.430353
H	 1.0492598673	 1.6281729352	-0.2075405825	 0.262097
H	-0.6032431188	 1.8904842491	-0.1836440808	 0.260258
H	-2.2037303122	-0.4543945852	 0.0019164472	 0.103116
H	-1.3246779742	-3.0460162226	-0.0611491131	 0.114504
H	 3.2145742507	-4.734574959	-0.0479181054	 0.187752
143.1733	149.8018	221.142	286.4858	376.6889	442.185	480.5718	551.5458	566.593	622.5959	654.3363	691.9289	697.243	729.9981	753.6931	848.2836	963.9538	1012.103	1038.1104	1096.8775	1215.8075	1253.6365	1313.2798	1444.8717	1574.0332	1623.0667	1661.3038	2220.5434	3258.0805	3271.359	3504.9823	3558.8808	3662.5639
NC1=CC=C(O1)C#C	Nc1ccc(o1)C#C	
InChI=1S/C6H5NO/c1-2-5-3-4-6(7)8-5/h1,3-4H,7H2	InChI=1S/C6H5NO/c1-2-5-3-4-6(7)8-5/h1,3-4H,7H2
