14
gdb 695	8.06963	4.05535	4.05535	0.	57.31	-0.2893	0.1064	0.3958	432.3178	0.121716	-233.217482	-233.213109	-233.212165	-233.244779	17.897	
C	-0.0866386191	 1.6243768813	 0.0106414466	-0.256332
C	 1.4212355627	 1.305158958	-0.004740064	-0.027072
C	 1.2459867167	 0.0595049601	 0.9332837008	-0.027072
C	 2.026404157	-0.8649711697	-0.0217629854	-0.256332
C	 1.2288677191	 0.0695243879	-0.9526090855	-0.027072
C	-0.0165551257	 0.08462634	 0.0018268887	-0.027072
H	-0.4821889675	 2.0957757728	 0.916496548	 0.088869
H	-0.499077419	 2.1048574557	-0.882825725	 0.088869
H	 2.2733917981	 1.9873340634	-0.0085700226	 0.066368
H	 1.2353455854	 0.0774781036	 2.0246643081	 0.066368
H	 3.1162912911	-0.7586574289	-0.0314578809	 0.088869
H	 1.744504393	-1.9231658878	-0.0244600076	 0.088869
H	 1.1988456633	 0.099456611	-2.043366029	 0.066368
H	-0.8280479952	-0.6454536773	 0.0050333278	 0.066368
406.2765	406.2765	712.6215	760.8438	847.1957	847.1957	863.6365	863.6366	897.5889	931.7518	961.7374	1006.5608	1022.9436	1028.3314	1028.3314	1123.5597	1124.8162	1147.0192	1147.0192	1166.2028	1191.4477	1191.4478	1247.6255	1247.6255	1286.2182	1317.3905	1510.1011	1511.1707	3033.1308	3034.9327	3087.4194	3090.1022	3090.1022	3093.0982	3093.0988	3108.6138
C1C2C3CC2C13	C1[C@H]2[C@@H]3C[C@H]2[C@H]13	
InChI=1S/C6H8/c1-3-5-2-6(3)4(1)5/h3-6H,1-2H2	InChI=1S/C6H8/c1-3-5-2-6(3)4(1)5/h3-6H,1-2H2/t3-,4+,5-,6+
