19
gdb 2542	3.30271	1.84277	1.29429	2.677	68.16	-0.2452	-0.0189	0.2263	982.2594	0.169173	-310.941183	-310.932124	-310.931179	-310.975338	31.23	
C	-0.0256468266	 1.5680684291	 0.0899658036	-0.391409
C	-0.0026595971	 0.0404625812	-0.0212170935	-0.195968
C	 0.7151226507	-0.4829283144	-1.2833122541	-0.036311
C	 0.8625009521	-2.0189548455	-1.2535473962	-0.195967
C	 1.7174061704	-2.5816251938	-2.3932877697	-0.391412
C	-0.0752740589	-0.0796101897	-2.5120899611	 0.17192
O	 0.3154446968	 0.6217811546	-3.4089194559	-0.256032
H	 0.9903542555	 1.9756641673	 0.1195808071	 0.122599
H	-0.5372531459	 2.029333559	-0.7610661258	 0.129436
H	-0.5410231933	 1.8858380124	 1.0012590182	 0.115946
H	 0.495377282	-0.3871174756	 0.8570527471	 0.102762
H	-1.0293754421	-0.3506555092	-0.0057712637	 0.100249
H	 1.7050857793	-0.0180926416	-1.3650917909	 0.088163
H	 1.2998006207	-2.3015169573	-0.2885861848	 0.10276
H	-0.1371485063	-2.4745117312	-1.2764741356	 0.100248
H	 1.2969160972	-2.3381372844	-3.3744446191	 0.129418
H	 2.7325357975	-2.1719239401	-2.3628222478	 0.122603
H	 1.7932954033	-3.6708735193	-2.3238279081	 0.115951
H	-1.1102956454	-0.5050941216	-2.5282756298	 0.065043
45.5559	87.779	104.3042	175.2542	205.9592	233.4911	290.9049	347.8439	385.4969	435.1279	523.5112	769.2827	772.7567	881.7448	902.6774	951.0848	997.4707	1030.0742	1048.0773	1059.3346	1132.9106	1157.8757	1179.1667	1266.7313	1274.8902	1306.544	1360.8728	1372.0504	1372.3224	1418.5007	1419.3951	1426.2586	1481.061	1492.7074	1499.7592	1499.8007	1503.7076	1506.1224	1833.1937	2818.1004	3013.8115	3017.7621	3036.2147	3036.374	3043.4865	3052.5341	3061.7068	3104.3868	3105.0641	3108.5282	3108.766
CCC(CC)C=O	CCC(CC)C=O	
InChI=1S/C6H12O/c1-3-6(4-2)5-7/h5-6H,3-4H2,1-2H3	InChI=1S/C6H12O/c1-3-6(4-2)5-7/h5-6H,3-4H2,1-2H3
