11
gdb 2961	6.48956	1.78438	1.5473	2.7619	54.28	-0.2846	-0.0991	0.1856	748.6499	0.078602	-339.423497	-339.416996	-339.416052	-339.454399	22.089	
O	-0.0151555654	 0.1165839939	-0.6005219563	-0.300313
C	-0.0037544031	 1.2669325722	-0.2239751746	 0.306047
C	 1.2525879886	 1.9058941957	 0.2081984302	 0.229439
N	 2.2301109444	 2.4231863614	 0.5454241012	-0.294597
C	-1.2095932914	 2.1313452629	-0.1647118427	-0.116108
C	-2.0381488105	 2.1740565178	-1.4230464823	-0.211508
N	-2.5141854518	 1.4658079729	-0.2497927068	-0.292464
H	-1.1507423688	 3.0106635694	 0.468155744	 0.130814
H	-2.5540146556	 3.0999809038	-1.6576891517	 0.145005
H	-1.672451857	 1.6032951041	-2.2718812916	 0.145462
H	-2.3442918294	 0.466244156	-0.3662187594	 0.258224
72.8008	151.7556	236.0021	278.2123	329.0318	479.1287	599.1747	758.0824	785.8469	844.508	888.5615	969.8232	999.8897	1092.5374	1117.8446	1142.8443	1174.4499	1283.4456	1310.8979	1397.9573	1500.2005	1767.1708	2340.4455	3119.5154	3174.405	3216.2344	3471.6624
O=C(C#N)C1CN1	O=C(C#N)[C@H]1CN1	
InChI=1S/C4H4N2O/c5-1-4(7)3-2-6-3/h3,6H,2H2	InChI=1S/C4H4N2O/c5-1-4(7)3-2-6-3/h3,6H,2H2/t3-/m1/s1
