21
gdb 1889	4.95486	1.79185	1.44223	0.1533	74.22	-0.299	0.0815	0.3805	929.9492	0.196059	-275.0143	-275.006377	-275.005433	-275.046602	29.889	
C	-0.1622287344	 1.5478442758	-0.0060059171	-0.408819
C	 0.0613986336	 0.0370146995	 0.0149177662	 0.058351
C	 0.8561711117	-0.5050246947	-1.201585256	-0.212225
C	 1.627910721	-1.7551808238	-0.693244014	-0.211977
C	 1.2590331118	-1.9114499052	 0.8047850536	 0.058267
C	 2.3544385115	-2.5503795859	 1.6561634122	-0.408811
C	 0.8582821553	-0.4868049563	 1.2207199319	-0.203587
H	 0.7944297335	 2.0838889626	-0.0125167069	 0.109553
H	-0.7210788742	 1.8572064284	-0.8960992189	 0.109698
H	-0.7257116895	 1.8824451755	 0.8718339916	 0.108638
H	-0.9206942649	-0.4566331432	 0.0302400794	 0.066358
H	 0.1973598133	-0.7307706856	-2.0454076035	 0.092598
H	 1.5581440346	 0.2600447955	-1.5528520882	 0.092324
H	 1.3905705682	-2.6581041956	-1.2637093682	 0.092522
H	 2.7088803095	-1.6020774809	-0.7913411983	 0.092308
H	 0.3592279773	-2.5393341165	 0.8726127347	 0.066347
H	 3.2720466656	-1.9506718499	 1.6257050237	 0.109554
H	 2.0483413919	-2.638125769	 2.7043380443	 0.108644
H	 2.6038567787	-3.5554786851	 1.2986002038	 0.109694
H	 1.760664472	 0.1260817851	 1.3647244918	 0.084537
H	 0.2921161735	-0.4548326509	 2.1577902679	 0.086025
40.8389	134.8791	230.9644	243.8251	268.0751	345.2875	418.3139	427.2484	504.4115	591.476	780.7384	837.757	842.0925	895.4254	920.3407	927.1222	961.4506	1002.3984	1011.4059	1037.2795	1072.3671	1118.573	1157.5626	1175.3404	1212.9036	1238.7011	1279.5103	1287.074	1296.5036	1314.7312	1348.1788	1352.8506	1381.0451	1387.3271	1409.8136	1410.8515	1488.8541	1489.4717	1497.5101	1497.928	1498.977	1500.964	1514.0098	2993.479	2994.4247	3009.1258	3021.8718	3022.8755	3029.9638	3044.0607	3068.7779	3070.0883	3086.5592	3088.5893	3091.6745	3091.7457	3094.2438
CC1CCC(C)C1	C[C@H]1CC[C@@H](C)C1	
InChI=1S/C7H14/c1-6-3-4-7(2)5-6/h6-7H,3-5H2,1-2H3	InChI=1S/C7H14/c1-6-3-4-7(2)5-6/h6-7H,3-5H2,1-2H3/t6-,7+
