15
gdb 1443	7.65509	1.45124	1.23851	4.5508	59.79	-0.2511	-0.0189	0.2322	938.2088	0.125042	-341.875439	-341.867667	-341.866722	-341.907737	26.874	
C	-0.0042663343	 1.6533113975	 0.0705429438	-0.366879
C	-0.1215413496	 0.1327006966	 0.0154745721	-0.27158
C	-1.5513346063	-0.3671019806	-0.018346108	 0.391936
N	-2.5435077105	 0.4194130359	-0.0017821684	-0.494863
N	-1.6204810275	-1.7845478611	-0.0691880879	-0.337968
C	-2.7523977753	-2.5580919045	-0.1092779844	 0.168298
O	-3.8922188436	-2.1504305701	-0.1077798032	-0.299185
H	 1.0477335168	 1.9519228027	 0.0928993535	 0.105925
H	-0.4818260378	 2.1110338347	-0.7983789381	 0.138047
H	-0.5015283733	 2.0489282779	 0.9586973853	 0.13804
H	 0.4013014559	-0.2599546786	-0.8686702713	 0.115222
H	 0.3815316791	-0.3218023882	 0.8812686146	 0.115219
H	-3.4213697725	-0.0996076121	-0.0300397539	 0.251925
H	-0.7426578081	-2.2828165898	-0.0768340746	 0.254165
H	-2.5030825531	-3.6366689503	-0.1445397497	 0.091696
69.2405	92.7465	188.7075	206.6664	255.7885	302.535	380.5264	534.1087	547.266	601.1949	756.6021	812.9378	923.9948	972.7995	982.2706	1025.9343	1046.8086	1105.4307	1118.1917	1189.1436	1292.8753	1302.6651	1400.2049	1416.2222	1440.9037	1471.1104	1487.924	1498.2046	1507.483	1741.5354	1815.2188	2943.5246	3004.6902	3031.0478	3054.4935	3126.7099	3138.4694	3490.5012	3610.5452
CCC(=N)NC=O	CCC(=N)NC=O	
InChI=1S/C4H8N2O/c1-2-4(5)6-3-7/h3H,2H2,1H3,(H2,5,6,7)	InChI=1S/C4H8N2O/c1-2-4(5)6-3-7/h3H,2H2,1H3,(H2,5,6,7)
