11
gdb 890	6.90575	2.29329	1.72565	5.1829	48.82	-0.1911	0.0466	0.2378	659.6148	0.07952	-376.620836	-376.614507	-376.613563	-376.65086	22.864	
N	 0.128901646	 1.3719771177	 0.1761299666	-0.588249
C	-0.0604752567	 0.0069232768	 0.0456078675	 0.372913
C	-1.1374288269	-0.7924164008	-0.0210412988	-0.207457
N	-0.6286050315	-2.1097615495	-0.0071446318	-0.360902
C	 0.7353607937	-2.0994915021	 0.0337705725	 0.483106
O	 1.5337583916	-2.9959648977	 0.0313917036	-0.401617
O	 1.0861097869	-0.7460656683	 0.0794563021	-0.227317
H	 0.9312334815	 1.7013599489	-0.3478690828	 0.262954
H	-0.6956177425	 1.9069273986	-0.0610510003	 0.256669
H	-2.18827842	-0.5715600678	-0.0590375177	 0.135283
H	-1.1549553921	-2.9620836958	-0.0675157408	 0.274617
148.4119	180.2973	240.2137	340.1656	409.5594	548.5039	615.6231	632.9404	647.2483	727.8298	760.3137	781.6478	931.5691	988.448	1063.9184	1105.2463	1182.2258	1325.3838	1389.2165	1420.0923	1631.5736	1745.4576	1906.8992	3302.5396	3534.4815	3637.8291	3707.8078
NC1=CNC(=O)O1	Nc1c[nH]c(=O)o1	
InChI=1S/C3H4N2O2/c4-2-1-5-3(6)7-2/h1H,4H2,(H,5,6)	InChI=1S/C3H4N2O2/c4-2-1-5-3(6)7-2/h1H,4H2,(H,5,6)
