13
gdb 3684	7.42024	2.10254	1.67234	1.5938	55.64	-0.2761	-0.0138	0.2623	733.3854	0.101619	-340.660106	-340.653314	-340.65237	-340.691244	23.266	
C	 0.0021556393	 1.4693207783	-0.0650190651	-0.494698
C	-0.0645581849	-0.0122693418	 0.0293248439	 0.412501
N	-1.067474545	-0.7955482665	-0.2308884234	-0.342473
C	-0.5428651593	-2.0451466913	 0.0347777233	 0.354026
C	-1.3215137755	-3.3055044156	-0.1164196612	-0.487854
N	 0.7020377002	-2.0336433938	 0.4326015381	-0.171185
O	 1.0313194766	-0.6689031594	 0.4316852819	-0.195698
H	 0.7811946008	 1.7761355318	-0.7693671249	 0.158101
H	-0.9609110863	 1.8511884115	-0.4027388905	 0.162648
H	 0.2450379839	 1.9070744578	 0.907857807	 0.158095
H	-1.6698458832	-3.4140469813	-1.1479100096	 0.148466
H	-0.70573256	-4.1662608991	 0.1478512869	 0.149608
H	-2.2062380065	-3.2835787106	 0.5269063235	 0.148463
61.8325	138.2352	192.922	266.3313	339.1158	409.8811	620.1134	665.2595	716.3455	753.6393	919.9114	992.1234	999.4373	1052.3518	1069.6003	1071.9251	1073.2643	1300.6367	1372.1658	1409.8387	1423.8272	1474.3441	1475.7983	1476.0311	1476.628	1572.3425	1634.903	3051.8537	3054.3251	3111.7085	3113.3083	3151.1284	3164.6076
CC1=NC(C)=NO1	Cc1nc(C)no1	
InChI=1S/C4H6N2O/c1-3-5-4(2)7-6-3/h1-2H3	InChI=1S/C4H6N2O/c1-3-5-4(2)7-6-3/h1-2H3
