13
gdb 3124	5.54947	2.27223	1.85868	2.5431	55.79	-0.25	-0.0287	0.2213	670.5929	0.101207	-344.416076	-344.409974	-344.409029	-344.446067	22.28	
O	-0.1115507958	-0.0177254071	 0.0431747826	-0.270299
C	-0.0253777763	 1.1878044916	-0.0069175965	 0.058797
C	 1.2395278436	 1.9215362496	 0.0193734308	 0.182876
C	 1.366343721	 3.4089041915	 0.3391919426	-0.349883
C	 1.8019629034	 2.9463223156	-0.9962401595	 0.080028
O	 3.0879575219	 2.3555390913	-0.9784527367	-0.274278
C	 2.6299572012	 1.3068799279	-0.0724083146	-0.138057
H	-0.9315039658	 1.8312398301	-0.0871087136	 0.068044
H	 0.4180036577	 3.9382089805	 0.3665694472	 0.131056
H	 2.1023267949	 3.7296306434	 1.0707749547	 0.132229
H	 1.4037337496	 3.2865342338	-1.9454708019	 0.124579
H	 3.226377291	 1.2621792834	 0.8444835494	 0.117131
H	 2.6283506138	 0.3364943284	-0.5754169644	 0.137779
123.7387	201.544	252.6731	351.9813	447.6866	499.0628	710.1619	753.5481	791.8472	902.1885	936.7504	967.9487	981.1858	1026.7838	1036.5441	1064.8147	1097.9696	1111.716	1151.4763	1232.0215	1292.1483	1337.1443	1393.9756	1437.4991	1472.1075	1515.1904	1795.7316	2866.6032	3048.2338	3110.9139	3117.8796	3184.4943	3211.3173
O=CC12CC1OC2	O=C[C@]12C[C@H]1OC2	
InChI=1S/C5H6O2/c6-2-5-1-4(5)7-3-5/h2,4H,1,3H2	InChI=1S/C5H6O2/c6-2-5-1-4(5)7-3-5/h2,4H,1,3H2/t4-,5+/m1/s1
