13
gdb 1771	4.91277	1.9576	1.77309	3.1327	55.37	-0.257	0.0164	0.2734	723.9167	0.102074	-340.622886	-340.615968	-340.615024	-340.653424	25.678	
N	-0.2177023912	 1.3869595729	 0.0077072538	-0.569741
C	-0.0488795559	-0.0473910325	-0.0100544835	 0.091261
C	-0.4997441416	-0.7802496011	 1.2547240398	-0.344481
C	-1.3825877158	-0.8110011377	 0.0456242395	 0.14127
O	-2.5441308691	-0.0693154948	-0.0176025862	-0.421062
C	 1.0479071701	-0.590493766	-0.7709347193	 0.236569
N	 1.9267105796	-1.0039409833	-1.4016107353	-0.342999
H	 0.4834260013	 1.8360290742	 0.5884767292	 0.253526
H	-0.1333636846	 1.7700594573	-0.92905386	 0.256063
H	 0.0462368035	-1.6746714668	 1.5305721398	 0.142454
H	-0.7995815429	-0.1407618944	 2.0778468343	 0.133436
H	-1.4524442054	-1.7350583546	-0.5174389616	 0.131418
H	-2.2808298179	 0.8500341567	 0.1513921696	 0.292284
148.4103	174.9559	264.4861	277.9096	332.7151	438.7371	493.0896	549.8269	578.6873	605.0443	706.2455	816.2123	840.1851	897.4999	944.1327	1039.5301	1058.855	1102.4279	1154.636	1212.4207	1288.3447	1296.5186	1355.201	1439.1403	1472.16	1658.5604	2336.6217	3141.3004	3183.0692	3238.7073	3500.1673	3578.2602	3681.0452
NC1(CC1O)C#N	N[C@]1(C[C@H]1O)C#N	
InChI=1S/C4H6N2O/c5-2-4(6)1-3(4)7/h3,7H,1,6H2	InChI=1S/C4H6N2O/c5-2-4(6)1-3(4)7/h3,7H,1,6H2/t3-,4-/m1/s1
