14
gdb 469	7.02085	3.30173	2.50629	1.2942	49.23	-0.2502	0.0904	0.3406	539.3012	0.120486	-307.569255	-307.563241	-307.562296	-307.599195	20.939	
C	-0.15078399	 1.5555644326	 0.0666944975	-0.40058
C	 0.0821289622	 0.0552036546	 0.0003549209	 0.138281
C	 0.9047124516	-0.4283411072	-1.2033863578	-0.113112
O	 1.5869969239	-1.5622472949	-0.6925968064	-0.236515
C	 1.8991384425	-1.2218987628	 0.6346625769	 0.030888
O	 0.8684007438	-0.3799059556	 1.1173848684	-0.275405
H	 0.8005550534	 2.0956881448	 0.0384448551	 0.12116
H	-0.7666819901	 1.8855689604	-0.7769289526	 0.11638
H	-0.6699697227	 1.8221395909	 0.9909864578	 0.131636
H	-0.8814608121	-0.4742981304	 0.0276808418	 0.080026
H	 0.3006472721	-0.7423820645	-2.0569135901	 0.118116
H	 1.6145273795	 0.3498422588	-1.5292778397	 0.091545
H	 1.9499882977	-2.1424741717	 1.2270824114	 0.113091
H	 2.8644904483	-0.6871417051	 0.6897924968	 0.084489
55.6431	226.0824	234.1227	321.592	454.5756	624.6155	741.2093	843.6059	906.602	950.8828	978.4059	1028.8987	1099.8433	1119.7206	1139.8884	1167.8651	1185.2685	1208.4597	1264.9961	1334.4633	1365.014	1395.99	1411.066	1436.8205	1485.4714	1497.5261	1511.6613	1551.9445	2938.7138	2972.0269	2995.9616	3038.1143	3057.2415	3108.1729	3112.5919	3122.1499
CC1COCO1	C[C@H]1COCO1	
InChI=1S/C4H8O2/c1-4-2-5-3-6-4/h4H,2-3H2,1H3	InChI=1S/C4H8O2/c1-4-2-5-3-6-4/h4H,2-3H2,1H3/t4-/m0/s1
