15
gdb 3369	4.57111	2.64766	2.5158	1.1028	56.14	-0.2459	0.0922	0.3381	624.8042	0.125739	-345.627428	-345.621103	-345.620159	-345.65761	23.289	
C	-0.070134416	 1.5754040146	 0.0216152996	-0.40362
C	 0.0335465827	 0.0708945316	 0.0863589753	-0.065509
C	 1.3274311993	-0.6728201001	-0.1916105967	 0.035799
O	 2.5123259146	 0.0940399315	-0.1492778583	-0.252267
C	 2.872458799	 0.1463140884	 1.2197880406	 0.025661
O	 1.6672229328	 0.128818796	 1.963768241	-0.252232
C	 0.7713498102	-0.6506835766	 1.1997202964	 0.035593
H	 0.8434772232	 2.0492493797	 0.3824745025	 0.135554
H	-0.2411333117	 1.9076885792	-1.0072778521	 0.118902
H	-0.9026512027	 1.9324938975	 0.6362591096	 0.118861
H	-0.8480796458	-0.4673759761	-0.2578630315	 0.088391
H	 1.3702934394	-1.5477815359	-0.8315837475	 0.101454
H	 3.5005720046	-0.7217562155	 1.4852587964	 0.09121
H	 3.4036557752	 1.081609391	 1.416910594	 0.120745
H	 0.3524229652	-1.5071486955	 1.7173357807	 0.101458
117.5138	181.4287	197.6459	282.6781	472.4887	614.5446	720.8004	750.8899	774.2449	775.6515	897.8575	950.1889	979.9851	1013.6488	1060.2161	1078.4301	1097.7993	1104.7321	1138.0625	1149.7921	1178.0275	1214.2478	1225.1045	1303.0692	1346.0924	1415.8055	1420.3094	1424.0127	1490.2204	1498.1701	1536.9478	2952.8538	3043.1316	3093.9814	3100.1885	3122.3127	3145.7626	3156.6919	3167.4209
CC1C2OCOC12	C[C@H]1[C@H]2OCO[C@@H]12	
InChI=1S/C5H8O2/c1-3-4-5(3)7-2-6-4/h3-5H,2H2,1H3	InChI=1S/C5H8O2/c1-3-4-5(3)7-2-6-4/h3-5H,2H2,1H3/t3-,4+,5-
