14
gdb 2453	5.65662	2.49034	2.0464	1.9409	56.47	-0.2303	-0.0255	0.2049	640.6005	0.114566	-324.574829	-324.569068	-324.568124	-324.604457	22.109	
O	 0.0124082826	 0.3499291421	 0.8520789443	-0.296891
C	-0.0117946352	 1.3550007917	 0.194605858	 0.372598
C	-1.2673407812	 2.1043274709	-0.2813285743	-0.341384
C	-0.7376829931	 3.4132252718	-0.8215071636	-0.016994
C	 0.0824070995	 4.2440091003	 0.0953043646	-0.244534
N	 0.753014008	 3.3943541757	-0.897102454	-0.096319
C	 1.2102999351	 2.1178745969	-0.3454684818	-0.26994
H	-1.7521231915	 1.5057256447	-1.0619749539	 0.138541
H	-1.9820910742	 2.2038041083	 0.5401456119	 0.140198
H	-1.239838012	 3.8765431928	-1.6648753503	 0.100314
H	 0.184147525	 5.3115722568	-0.0751245551	 0.124124
H	 0.1270448968	 3.9496189732	 1.1441238944	 0.114354
H	 1.9621594075	 2.2512173218	 0.4383572352	 0.138025
H	 1.6703240326	 1.5184773031	-1.1414423754	 0.137907
89.3562	308.6455	402.3471	452.5737	461.9325	626.9892	645.5794	755.317	783.0766	806.4282	822.8728	932.7819	964.5778	1026.594	1081.725	1089.8698	1113.5851	1148.1444	1161.821	1173.0102	1228.4888	1270.0453	1286.8062	1296.3703	1389.8017	1450.3656	1459.1796	1509.2745	1854.4158	3033.7656	3046.8272	3086.531	3090.5911	3098.3188	3156.1439	3184.5958
O=C1CC2CN2C1	O=C1C[C@H]2CN2C1	
InChI=1S/C5H7NO/c7-5-1-4-2-6(4)3-5/h4H,1-3H2	InChI=1S/C5H7NO/c7-5-1-4-2-6(4)3-5/h4H,1-3H2/t4-,6?/m0/s1
