17
gdb 1793	3.84315	2.02041	1.68088	2.0074	60.51	-0.2437	0.0723	0.3161	814.1813	0.146075	-346.834502	-346.826296	-346.825352	-346.866448	30.432	
C	 0.0701176088	 1.4779678808	-0.2537932603	-0.395643
C	-0.011130153	 0.0245371913	 0.2260774659	-0.218533
C	-1.4088501969	-0.5531803254	 0.1311247057	 0.393401
O	-2.3640701906	 0.0543310038	 0.964940544	-0.472932
C	-1.9130379063	-1.1094284359	-1.1924894794	-0.390667
C	-1.6128973985	-2.0244590979	-0.0180930195	 0.0606
O	-0.4778485965	-2.8389370459	-0.0401801457	-0.421897
H	 1.0908891875	 1.8623769689	-0.1709293512	 0.116544
H	-0.2393748986	 1.5694765987	-1.3008252871	 0.114155
H	-0.5712063618	 2.1328033193	 0.3469627759	 0.108227
H	 0.6698679747	-0.6069540853	-0.3507789453	 0.110449
H	 0.3120988198	-0.0382022997	 1.2721662596	 0.106628
H	-2.5776786896	 0.9148793003	 0.5885555184	 0.282022
H	-2.9530613355	-0.9458440705	-1.4529708664	 0.109878
H	-1.2169961835	-1.1292727419	-2.0250903314	 0.110991
H	-2.471632548	-2.4298202738	 0.5157668291	 0.098016
H	-0.633729132	-3.544727477	-0.6760612023	 0.288763
83.9856	170.8972	216.1498	249.4614	276.0053	294.5157	308.7148	410.9732	427.5726	469.8031	573.2298	689.2525	780.6612	828.4278	901.4837	923.8332	973.0946	1007.4579	1017.7872	1054.1229	1087.3875	1112.9401	1175.8322	1233.2767	1263.7144	1305.2365	1312.1637	1339.279	1385.1043	1405.9588	1416.0396	1478.5652	1495.2707	1502.88	1510.8412	3028.9993	3040.1446	3083.5401	3105.9657	3106.8417	3112.8486	3126.7436	3221.7396	3802.0994	3808.8655
CCC1(O)CC1O	CC[C@@]1(O)C[C@H]1O	
InChI=1S/C5H10O2/c1-2-5(7)3-4(5)6/h4,6-7H,2-3H2,1H3	InChI=1S/C5H10O2/c1-2-5(7)3-4(5)6/h4,6-7H,2-3H2,1H3/t4-,5-/m1/s1
