16
gdb 4429	3.4162	1.86183	1.22342	3.8575	70.21	-0.1827	0.0392	0.2219	973.5649	0.129958	-379.964412	-379.95602	-379.955076	-379.997196	30.13	
C	 0.1223760186	 1.5400124328	 0.0542919053	-0.503574
C	-0.010141879	 0.0593244491	 0.0077608169	 0.217873
C	-1.0829513375	-0.7463436299	 0.042765309	 0.25212
C	-2.5438060533	-0.5201627383	 0.1399909388	-0.492334
O	-0.6622808048	-2.0754817452	-0.031529601	-0.250502
C	 0.714180188	-2.0988112569	-0.1161708965	 0.454431
N	 1.4682532671	-3.1152462252	-0.2010911244	-0.611986
N	 1.1068710692	-0.7806989417	-0.0893428442	-0.383238
H	 0.7195018424	 1.8629854012	 0.9159050636	 0.137354
H	 0.6126184189	 1.9279383252	-0.8470640331	 0.137222
H	-0.8590934041	 2.0115896074	 0.1311156972	 0.140862
H	-3.0707526452	-0.9334703852	-0.7282414092	 0.1402
H	-2.9636550539	-0.99830708	 1.0329767293	 0.140212
H	-2.761296969	 0.5490501526	 0.1925982717	 0.132027
H	 0.916744842	-3.968865616	-0.2005226074	 0.220594
H	 2.0702671704	-0.5050274796	-0.1436138259	 0.268738
78.0734	149.8927	175.4564	199.8767	236.83	254.9744	299.903	379.5588	515.0894	610.4955	627.4944	632.4985	710.0113	746.5054	812.1934	938.1469	978.5618	1010.3931	1062.4031	1065.5894	1069.0226	1146.2754	1252.1755	1270.834	1355.843	1409.9481	1427.0512	1441.6202	1465.8348	1475.4987	1494.7742	1497.6356	1764.6067	1796.0534	3022.2587	3025.3842	3068.1625	3072.0271	3125.0953	3132.5031	3541.465	3706.8211
CC1=C(C)OC(=N)N1	CC1=C(C)O[C@H]([NH])N1	
InChI=1S/C5H8N2O/c1-3-4(2)8-5(6)7-3/h1-2H3,(H2,6,7)	InChI=1S/C5H9N2O/c1-3-4(2)8-5(6)7-3/h5-7H,1-2H3/t5-/m1/s1
