12
gdb 1265	8.07402	1.09087	0.97319	5.3628	56.69	-0.263	-0.0392	0.2238	1111.0895	0.089488	-360.501473	-360.493727	-360.492782	-360.534734	25.671	
N	-3.0272551866	 0.6880782442	 0.0221096205	-0.500203
H	 1.4055498864	 1.7808310595	-0.2986729266	 0.311683
H	-2.8731738281	 1.1187146423	 0.929052649	 0.237396
H	-4.0243543285	 0.5062125813	-0.0441986415	 0.237688
C	-2.304804121	-0.5890142102	-0.0423652291	-0.308113
C	-0.8600459976	-0.3874439202	-0.0209513456	 0.129455
C	 0.3353256458	-0.2340754698	 0.0180541504	-0.082707
C	 1.7725433781	-0.0571331871	 0.0555261393	 0.343708
O	 2.5643417611	-0.9374874233	 0.2468544701	-0.294895
O	 2.1780804352	 1.2209405299	-0.1468051707	-0.358096
H	-2.5609259237	-1.3055693893	 0.7571628803	 0.13106
H	-2.5681287211	-1.0816934573	-0.9872515962	 0.153024
33.9535	83.7344	133.4959	211.4753	250.3807	384.4508	424.8973	516.1456	566.6245	611.8268	745.7666	766.1974	851.1337	991.5927	1003.4435	1100.9916	1177.651	1199.6516	1305.9283	1319.9813	1417.3506	1482.1907	1657.6423	1848.6024	2346.0819	2953.2124	3041.8672	3493.385	3575.111	3785.8981	33.9541	83.7344	133.4962	211.4756	250.3816	384.4516	424.8973	516.1458	566.6246	611.827	745.7666	766.1976	851.1339	991.5927	1003.4435	1100.9917	1177.651	1199.6516	1305.9282	1319.9814	1417.3505	1482.1907	1657.6419	1848.6024	2346.0819	2953.2124	3041.8672	3493.3851	3575.1111	3785.8983
[NH3+]CC#CC([O-])=O	NCC#CC(=O)O	
InChI=1S/C4H5NO2/c5-3-1-2-4(6)7/h3,5H2,(H,6,7)	InChI=1S/C4H5NO2/c5-3-1-2-4(6)7/h3,5H2,(H,6,7)
