13
gdb 4377	3.89359	1.85322	1.2556	4.5157	63.76	-0.2218	-0.017	0.2049	880.9753	0.097148	-398.654682	-398.648168	-398.647224	-398.68506	25.382	
O	 0.1068765713	 1.3468800671	 0.0957623122	-0.435151
C	 0.0771038795	-0.0102128735	 0.0207300599	 0.363601
C	 0.139451295	-0.7109831736	-1.1819149598	-0.380413
C	 0.1009993897	-2.1031500449	-1.1404144638	 0.363602
O	 0.155185818	-2.8843703916	-2.2517087799	-0.43515
C	 0.001830449	-2.7367579312	 0.1015055051	-0.065703
N	-0.0572505746	-2.0601669413	 1.2459051803	-0.249784
C	-0.021083523	-0.730269874	 1.2146912906	-0.065701
H	 0.1755501616	 1.7184654167	-0.7897726459	 0.299158
H	 0.2163351762	-0.1835828485	-2.1309647575	 0.081136
H	 0.2218384042	-2.3285411244	-3.0350188609	 0.299157
H	-0.0289608965	-3.8213155113	 0.1464433602	 0.112624
H	-0.0703742403	-0.1950451495	 2.1582686793	 0.112624
230.8512	238.0192	327.5081	347.8647	351.7341	472.7157	486.7995	534.2256	554.4049	634.4497	727.2552	743.1404	850.4656	892.3841	932.0082	1007.3697	1027.9217	1172.0322	1173.7622	1218.8707	1230.0977	1333.1687	1354.1019	1366.9994	1511.6089	1515.5022	1636.961	1638.2858	3139.5875	3172.2321	3176.6509	3821.509	3822.592
OC1=CC(O)=CN=C1	Oc1cc(O)cnc1	
InChI=1S/C5H5NO2/c7-4-1-5(8)3-6-2-4/h1-3,7-8H	InChI=1S/C5H5NO2/c7-4-1-5(8)3-6-2-4/h1-3,7-8H
