14
gdb 1882	4.88189	2.32789	1.93628	4.1525	54.78	-0.255	0.0311	0.286	681.0938	0.114594	-361.72914	-361.722725	-361.721781	-361.759506	23.756	
O	-0.4512571206	 1.400238225	 0.3441853934	-0.428827
C	-0.0088772178	 0.0904733349	 0.0294675023	 0.095648
C	 0.6858991067	-0.5934621892	 1.2198642082	-0.099874
O	-0.3634851583	-1.1441350558	 2.0221921386	-0.236416
C	-1.5094466192	-1.2808668396	 1.2813553348	 0.427484
N	-2.5908357725	-1.7615577493	 1.7156685348	-0.542926
C	-1.2556007282	-0.7798243465	-0.1244016188	-0.299857
H	 0.3189433838	 1.9488633409	 0.5242382487	 0.286237
H	 0.6303722674	 0.0888476286	-0.8632299547	 0.076079
H	 1.3544737269	-1.3979726672	 0.8854510477	 0.108981
H	 1.257308176	 0.1072958263	 1.8359376123	 0.110606
H	-2.4918322817	-2.0413070797	 2.6931202561	 0.221643
H	-2.1066078851	-0.2250654886	-0.5176877092	 0.151316
H	-1.0599379874	-1.6312802997	-0.7846378742	 0.129906
99.1859	167.8744	296.3224	383.4603	394.6912	459.3034	525.3025	677.1187	786.2699	846.0398	868.2181	891.4277	901.2527	977.9973	989.799	1041.251	1101.0997	1112.1379	1191.3559	1201.4541	1251.8227	1278.7748	1313.8016	1345.1645	1394.3635	1429.5267	1457.2592	1506.3467	1785.7297	3009.9277	3025.2381	3066.0563	3086.907	3149.7979	3472.5406	3816.2358
OC1COC(=N)C1	O[C@H]1CO[C]([NH])C1	
InChI=1S/C4H7NO2/c5-4-1-3(6)2-7-4/h3,5-6H,1-2H2	InChI=1S/C4H7NO2/c5-4-1-3(6)2-7-4/h3,5-6H,1-2H2/t3-/m1/s1
