15
gdb 3235	5.13446	2.66414	2.3046	1.0861	59.71	-0.2091	0.0797	0.2888	626.0347	0.124966	-308.435951	-308.429961	-308.429017	-308.465153	24.473	
O	-0.0772562753	 1.3962633775	 0.0542213083	-0.455851
C	 0.001007293	 0.0161929189	 0.0254996031	 0.395173
C	-0.2607040994	-0.7978296357	-1.2111317519	-0.364897
C	-1.1459489206	-0.9581766344	 0.0141120704	-0.112293
C	-0.4820478826	-1.7545054388	 1.1750107458	-0.042808
C	 0.91767294	-2.2320344286	 0.8906918401	-0.300876
C	 0.679879394	-0.7761883951	 1.1893282232	-0.123549
H	 0.7129497945	 1.7503898763	-0.3703045213	 0.283553
H	-0.7399738769	-0.2164282154	-1.9935959343	 0.114307
H	 0.3939066568	-1.578975825	-1.583129822	 0.107811
H	-2.2084963452	-0.7593943429	-0.0300968157	 0.096018
H	-1.0507185102	-2.1221180046	 2.0192647139	 0.089618
H	 1.3717476311	-2.7842599005	 1.7091379009	 0.111391
H	 1.2310892251	-2.5867667693	-0.0848912194	 0.111345
H	 1.1135747559	-0.2662834626	 2.040068319	 0.091057
226.7009	282.2151	347.8836	398.0235	447.7793	493.3046	609.9491	695.9753	761.3025	806.7797	831.2076	879.3424	902.9244	939.6607	958.6995	981.7731	1012.6595	1027.3386	1049.8554	1064.41	1091.5994	1102.3093	1171.4725	1195.5973	1236.0489	1287.051	1303.9826	1326.4697	1406.772	1485.4505	1512.7728	3116.3367	3130.2255	3187.3917	3192.8461	3201.5729	3202.7955	3209.1953	3776.2696
OC12CC1C1CC21	O[C@]12C[C@H]1[C@H]1C[C@@H]21	
InChI=1S/C6H8O/c7-6-2-5(6)3-1-4(3)6/h3-5,7H,1-2H2	InChI=1S/C6H8O/c7-6-2-5(6)3-1-4(3)6/h3-5,7H,1-2H2/t3-,4+,5-,6-/m0/s1
