14
gdb 3331	4.4157	3.42768	2.261	2.0687	56.89	-0.2448	0.0288	0.2736	595.9176	0.116021	-324.569596	-324.564018	-324.563074	-324.598961	21.319	
C	-0.0997050724	 1.4297392059	 0.2305787932	-0.315986
C	 1.296055584	 0.87997314	 0.0080147027	-0.07574
C	 2.2164491598	 0.6436020332	 1.1939629592	-0.174288
N	 1.7608531787	-0.3428806401	 2.165823909	-0.266929
C	 0.7280097274	-1.0290272389	 1.9326027044	 0.126635
O	-0.129940385	-0.99322997	 0.8800289877	-0.222638
C	 0.1033622053	-0.0193351141	-0.1122738166	 0.116065
H	-0.391062178	 1.6539431195	 1.2520244264	 0.130502
H	-0.5339623569	 2.0801643982	-0.5203517187	 0.119685
H	 1.7912933488	 1.1599673334	-0.9165932988	 0.094901
H	 3.1919339109	 0.3031579115	 0.8239144868	 0.119917
H	 2.4124191823	 1.5802825925	 1.7321810639	 0.113749
H	 0.3962856111	-1.7895266896	 2.6367230207	 0.124192
H	-0.2132932057	-0.3979593817	-1.0765898797	 0.109935
107.5336	281.0638	393.9055	503.879	532.8719	597.9016	746.7979	810.3287	823.9029	890.9577	921.5796	954.4958	969.4792	1022.7618	1053.7851	1056.5947	1112.5346	1125.834	1139.245	1194.9465	1235.2572	1277.3046	1354.9427	1365.4179	1405.0608	1426.1796	1479.8597	1490.7068	1743.6736	3015.5099	3040.262	3131.7798	3152.6257	3161.9829	3184.1468	3222.3954
C1C2CN=COC12	C1[C@H]2CN=CO[C@@H]12	
InChI=1S/C5H7NO/c1-4-2-6-3-7-5(1)4/h3-5H,1-2H2	InChI=1S/C5H7NO/c1-4-2-6-3-7-5(1)4/h3-5H,1-2H2/t4-,5-/m0/s1
