13
gdb 320	6.47877	3.57961	3.5684	1.7613	50.04	-0.2445	0.0682	0.3126	459.4671	0.109323	-286.408473	-286.403385	-286.402441	-286.436586	19.785	
O	-0.0766208983	 1.3850264559	 0.0061758304	-0.459576
C	 0.016833426	 0.0050671057	-0.0104386987	 0.348297
C	 0.6735172935	-0.9759879143	 0.9965214841	-0.228123
N	 0.0174553259	-1.9136833081	-0.0270377183	-0.134215
C	-1.182034839	-0.9498820129	 0.0415970069	-0.193016
C	 0.5683548589	-0.9579301061	-1.0949375935	-0.228122
H	 0.811880088	 1.755823942	-0.0352283156	 0.282219
H	 1.7644195667	-1.0517476176	 1.0165957371	 0.096549
H	 0.2430747341	-1.0530093629	 1.9980862636	 0.104923
H	-1.7450088905	-1.0213587715	 0.9753596917	 0.104796
H	-1.8358938299	-1.0057533664	-0.8320777725	 0.104797
H	 0.039556995	-1.0180618196	-2.0494541211	 0.104923
H	 1.6516765097	-1.0323887841	-1.2256335141	 0.096549
235.8003	359.637	371.6839	590.1824	592.5931	619.8821	782.2645	788.0828	892.4678	950.0238	961.5693	994.5193	999.679	1022.3683	1099.415	1153.1032	1170.6536	1173.0777	1190.2535	1193.8588	1258.5219	1297.8758	1365.9521	1506.5093	1509.1351	1565.8695	3048.9069	3052.439	3062.875	3119.406	3124.1809	3129.0584	3805.5155
OC12CN(C1)C2	O[C@@]12CN(C1)C2	
InChI=1S/C4H7NO/c6-4-1-5(2-4)3-4/h6H,1-3H2	InChI=1S/C4H7NO/c6-4-1-5(2-4)3-4/h6H,1-3H2
