14
gdb 579	11.9149	1.76899	1.6621	2.7826	54.2	-0.2458	-0.0201	0.2258	725.196	0.118731	-270.427802	-270.42131	-270.420366	-270.45852	22.45	
O	-0.2992548523	 0.0777621804	-0.1229624263	-0.237942
C	 0.0346704302	 1.2326539943	-0.058736919	 0.164319
C	 1.4364148598	 1.7468454506	-0.3169285907	-0.294157
C	 1.4473231583	 2.8916879011	-1.3124841781	 0.020341
C	 1.1512404218	 4.3035102303	-0.8629503434	-0.256411
C	 2.5481091897	 3.9211513787	-1.2819993207	-0.269756
H	-0.7009714151	 2.0294817607	 0.2000480032	 0.074168
H	 1.8355880939	 2.1036023185	 0.6441280063	 0.115445
H	 2.0579581465	 0.9081344313	-0.6462218526	 0.122258
H	 1.0795004908	 2.6233216041	-2.2992528106	 0.09658
H	 0.5710724772	 4.942738416	-1.518665174	 0.118343
H	 0.9696664099	 4.47380059	 0.1933478331	 0.113684
H	 3.3040878166	 3.8296205135	-0.5090578805	 0.114933
H	 2.9239137426	 4.2966198307	-2.2269915666	 0.118195
66.0098	89.8922	214.4654	324.7489	414.5843	494.4642	755.2441	802.9567	818.8654	833.2329	915.958	971.2838	1002.8641	1061.2589	1077.3342	1089.3025	1140.4811	1164.9593	1199.1072	1228.3137	1257.248	1293.014	1403.6305	1426.0762	1456.1138	1472.0664	1506.3627	1834.9647	2863.3132	3008.566	3085.9614	3131.2667	3135.7123	3142.7921	3209.9427	3224.7149
O=CCC1CC1	O=CCC1CC1	
InChI=1S/C5H8O/c6-4-3-5-1-2-5/h4-5H,1-3H2	InChI=1S/C5H8O/c6-4-3-5-1-2-5/h4-5H,1-3H2
