13
gdb 873	6.45502	2.19638	1.65676	2.0265	57.35	-0.1783	0.0406	0.2189	715.172	0.103132	-340.656176	-340.649457	-340.648513	-340.686492	24.934	
N	-0.0047608535	 1.3704632562	 0.0416539147	-0.601235
C	-0.1096044666	-0.0191622968	 0.0457447884	 0.275312
C	-1.1730293969	-0.8570862897	 0.0655832856	-0.16314
C	-0.666443468	-2.2020473603	 0.0397606798	-0.264569
C	 0.6911740386	-2.0807172637	 0.015865511	 0.369165
N	 1.7343394611	-2.9981549816	 0.0756193404	-0.593535
O	 1.0629532834	-0.7806086612	 0.0171484281	-0.200669
H	 0.5397771609	 1.7196887698	 0.8245051626	 0.241544
H	 0.4154086039	 1.7288392981	-0.8108917726	 0.239768
H	-2.205563447	-0.5463268013	 0.0902522353	 0.103001
H	-1.2312257792	-3.1204365334	 0.0424785307	 0.090028
H	 1.446906	-3.9245382736	-0.2092571832	 0.252636
H	 2.5435578132	-2.7008960425	-0.4558030107	 0.251693
136.1344	196.5141	215.5283	305.7314	337.544	472.8178	609.333	635.6987	662.8837	709.9148	737.9902	767.4869	781.5328	843.0628	955.4574	1005.3202	1030.6069	1106.86	1180.4455	1215.9436	1268.3531	1299.8462	1439.8597	1611.417	1648.2193	1666.6788	1697.624	3253.5394	3267.3243	3484.8086	3538.4097	3546.8709	3639.8042
NC1=CC=C(N)O1	Nc1ccc(N)o1	
InChI=1S/C4H6N2O/c5-3-1-2-4(6)7-3/h1-2H,5-6H2	InChI=1S/C4H6N2O/c5-3-1-2-4(6)7-3/h1-2H,5-6H2
