11
gdb 124	29.26507	2.42505	2.30445	1.3623	45.04	-0.2565	0.0324	0.2889	532.4302	0.088734	-231.092208	-231.086089	-231.085144	-231.121215	20.194	
C	-0.0099285142	 1.4010012804	 0.001533724	-0.219652
O	-0.0161105679	-0.0076174881	 0.0348225694	-0.227169
C	 0.6269659601	-0.5657130891	-1.0931769189	-0.198173
C	 0.5993755954	-2.0205046658	-1.0170693141	 0.281453
C	 0.5916530444	-3.2206074265	-0.9808996287	-0.415851
H	 1.0146502073	 1.8062765862	-0.0038379989	 0.105852
H	-0.5376613868	 1.7923650798	-0.8829893739	 0.10583
H	-0.5227713967	 1.7467831083	 0.901487381	 0.133235
H	 0.1327892507	-0.2338287647	-2.023154349	 0.11697
H	 1.6731072342	-0.2175635026	-1.1530588622	 0.116944
H	 0.5810398336	-4.2817701879	-0.9421820388	 0.20056
90.8326	170.3017	225.6555	335.0608	373.9221	527.4969	608.148	675.905	961.0108	995.3376	1031.2576	1151.0712	1182.4616	1220.0159	1252.7944	1407.9873	1476.9302	1483.8726	1495.4597	1516.1179	2248.779	2945.5115	2963.7166	2969.1404	3011.8177	3122.5766	3506.3715
COCC#C	COCC#C	
InChI=1S/C4H6O/c1-3-4-5-2/h1H,4H2,2H3	InChI=1S/C4H6O/c1-3-4-5-2/h1H,4H2,2H3
