17
gdb 4851	6.24659	1.27129	1.07054	1.069	73.07	-0.1729	0.0613	0.2343	1109.6852	0.142286	-363.894901	-363.886585	-363.885641	-363.927618	30.171	
C	 0.6241097648	 0.7778023475	-0.2257894815	-0.243159
O	-0.6961329055	 0.97558716	 0.2473016332	-0.261272
C	-1.549872178	-0.0385726275	-0.0205147264	 0.405976
C	-1.4270413266	-1.247144003	-0.6622733306	-0.29556
C	-2.7213538984	-1.8601657007	-0.603836753	-0.219378
C	-3.5769948784	-1.0194686786	 0.0606272911	 0.305303
C	-5.022316629	-1.1466315932	 0.4057447788	-0.501943
N	-2.8395355386	 0.1013767473	 0.4148454413	-0.379962
H	 1.1931108327	 1.6641363487	 0.0585646279	 0.132228
H	 1.0770947675	-0.1124453808	 0.2291379356	 0.125445
H	 0.6393404618	 0.6647649188	-1.3174295717	 0.12544
H	-0.5364651252	-1.6487431104	-1.1162889868	 0.08926
H	-2.9880851139	-2.8235592086	-1.0122285534	 0.084807
H	-5.19895225	-1.117331974	 1.4891777206	 0.120924
H	-5.6323238921	-0.3513697144	-0.0429828115	 0.12097
H	-5.4053788986	-2.1011039804	 0.0369346742	 0.134806
H	-3.1772436325	 0.9056477393	 0.914522062	 0.256117
75.4378	125.8463	188.1394	204.8935	214.8831	316.0235	325.3065	415.8523	486.6187	630.9312	636.5542	666.5753	693.331	736.8188	795.7807	979.3751	994.1351	1012.3089	1061.0594	1063.789	1094.9193	1184.1514	1204.2376	1235.4643	1268.3269	1288.5867	1418.2429	1420.5129	1465.4298	1478.0272	1481.3474	1482.6195	1501.6067	1511.7844	1583.595	1647.1557	3005.9852	3007.5635	3046.5371	3064.3946	3118.914	3137.7302	3240.0425	3266.2285	3679.3664
COC1=CC=C(C)N1	COc1ccc(C)[nH]1	
InChI=1S/C6H9NO/c1-5-3-4-6(7-5)8-2/h3-4,7H,1-2H3	InChI=1S/C6H9NO/c1-5-3-4-6(7-5)8-2/h3-4,7H,1-2H3
