13
gdb 1232	8.30412	1.26515	1.13494	6.8847	55.03	-0.2424	0.0031	0.2454	970.5388	0.101616	-377.813815	-377.806412	-377.805467	-377.845845	25.706	
O	-0.2206594005	-0.038924776	 0.1344699224	-0.361455
C	-0.1356476349	 1.2983490544	 0.1953494407	 0.413939
O	 0.8621702833	 1.8793608822	 0.5240304846	-0.33549
C	-1.4271234654	 2.0161266503	-0.2249798167	-0.291225
N	-2.5201322537	 1.0726001266	-0.3445745093	-0.248852
C	-3.6710635134	 1.4102985935	 0.0828500037	 0.116346
N	-4.7724160563	 0.6175538726	-0.0382075089	-0.495929
H	-5.5621606593	 0.7911773876	 0.5595191606	 0.267013
H	-4.6250864188	-0.3383120307	-0.3242450146	 0.264516
H	-1.6091541358	 2.834363917	 0.4855963326	 0.123072
H	-1.2150832537	 2.4796397504	-1.1984795642	 0.142612
H	-1.1412091065	-0.2283935456	-0.1426112473	 0.299526
H	-3.878415215	 2.3851718077	 0.5424347264	 0.105929
67.0563	103.1502	160.5239	279.7855	348.5918	376.135	418.7367	568.6843	572.6246	612.9854	658.0448	780.2367	875.8126	964.789	1029.1128	1029.95	1166.7852	1215.9289	1233.7416	1300.7433	1334.865	1414.4582	1422.701	1463.744	1630.5003	1766.1849	1878.0422	3003.2369	3042.243	3045.2663	3525.7285	3593.1318	3720.867
[O-]C(=O)CNC=[NH2+]	OC(=O)CN=CN	
InChI=1S/C3H6N2O2/c4-2-5-1-3(6)7/h2H,1H2,(H2,4,5)(H,6,7)	InChI=1S/C3H6N2O2/c4-2-5-1-3(6)7/h2H,1H2,(H2,4,5)(H,6,7)
