10
gdb 3833	5.91696	3.0035	1.99433	2.7116	53.82	-0.2508	-0.0746	0.1763	576.2853	0.068788	-351.615495	-351.610013	-351.609069	-351.645802	19.272	
N	-0.088946178	 1.3030465479	-0.0365721457	-0.502791
C	-0.0263478633	 0.0303747152	 0.006347313	 0.344994
C	-1.226884899	-0.7951338098	 0.0183595061	 0.026624
N	-1.1839540771	-2.0841411116	-0.0200594206	-0.167903
N	 0.0627941885	-2.5992214273	-0.0657181976	-0.099152
N	 1.2257820422	-1.9377396484	 0.0216178591	-0.042645
N	 1.215889484	-0.6744260176	 0.06243781	-0.247621
H	 0.8596420387	 1.6873838487	-0.0292284841	 0.231474
H	-2.2042424078	-0.3259221652	 0.0634557766	 0.156311
H	 0.1393906118	-3.6036268118	-0.0538207967	 0.300708
28.2749	369.3134	420.3894	455.3966	564.0744	588.0714	659.1329	781.7726	808.4822	915.7754	959.6466	986.2321	1055.0481	1115.9929	1138.7403	1318.4838	1377.5113	1414.5356	1567.7888	1646.6629	1720.8069	3194.5026	3449.3665	3658.629	28.2751	369.3133	420.3894	455.3967	564.0744	588.0714	659.1329	781.7726	808.4823	915.7754	959.6467	986.2321	1055.0482	1115.9929	1138.7403	1318.4839	1377.5114	1414.5357	1567.789	1646.6631	1720.8068	3194.5026	3449.3664	3658.629
N=C1C=NNN=N1	[NH]c1cn[nH]nn1	
InChI=1S/C2H3N5/c3-2-1-4-6-7-5-2/h1H,(H2,3,5,6)	InChI=1S/C2H8N5/c3-2-1-4-6-7-5-2/h2-7H,1H2
