12
gdb 4423	3.90408	2.09504	1.3634	2.4227	61.38	-0.2308	-0.044	0.1868	818.2583	0.085896	-414.706337	-414.700173	-414.699229	-414.736709	23.408	
O	-0.1328462209	 1.2746637465	 0.0105092367	-0.373583
C	 0.0463179358	-0.0415761159	 0.0019382329	 0.513954
N	 1.2170108845	-0.5712132595	-0.0071910485	-0.411201
C	 1.2286359536	-1.9561406688	-0.0149155049	-0.007409
C	 0.1138411754	-2.7151796155	-0.0131635811	-0.158346
C	-1.1839673783	-2.0852134344	-0.0026558068	 0.389818
N	-2.3055293275	-2.6662202172	 0.0001077144	-0.530723
O	-1.1309388647	-0.6624980846	 0.0049214687	-0.231427
H	 0.7523063542	 1.6664229792	 0.0080427836	 0.323053
H	 2.2164215844	-2.4045710167	-0.0227098167	 0.126339
H	 0.1392168947	-3.7954893255	-0.0193206589	 0.128616
H	-3.0738211311	-1.9961708976	 0.0079511304	 0.23091
137.7134	193.9879	354.1318	408.3429	505.389	526.1586	564.4576	580.3801	700.9723	772.2474	774.0343	822.7474	861.6471	912.2022	992.9283	1003.1837	1031.4115	1131.0665	1179.8685	1258.1427	1323.3486	1431.2287	1469.508	1613.5743	1670.2698	1768.8774	3191.4374	3243.7685	3503.6651	3777.2127
OC1=NC=CC(=N)O1	OC1=NCC=C([NH])O1	
InChI=1S/C4H4N2O2/c5-3-1-2-6-4(7)8-3/h1-2,5H,(H,6,7)	InChI=1S/C4H5N2O2/c5-3-1-2-6-4(7)8-3/h1,5H,2H2,(H,6,7)
