15
gdb 1505	7.86064	1.27549	1.11564	3.8249	61.31	-0.2373	-0.0671	0.1702	1025.2984	0.123944	-341.84973	-341.841583	-341.840639	-341.882735	27.725	
C	 0.0623673562	 1.5300626826	 0.003215124	-0.405124
C	-0.0900404599	 0.014226951	-0.0478297919	-0.101907
N	 0.6422407675	-0.5455935966	-1.1725267178	-0.321505
C	 0.8130759635	-1.8939504221	-1.3108713426	 0.287782
N	 0.4666301588	-2.7400426009	-0.416003157	-0.515194
C	 1.4895387152	-2.2943393239	-2.6045921807	 0.108509
O	 1.7370366368	-3.4371907119	-2.88340816	-0.234752
H	 1.11312247	 1.8176754159	 0.1060000338	 0.129408
H	-0.3346446929	 2.0033973281	-0.9027400302	 0.116158
H	-0.4894743028	 1.9371494079	 0.8544930281	 0.130901
H	 0.3017330925	-0.4528151694	 0.860722795	 0.141959
H	-1.1518194054	-0.2682595803	-0.1007548486	 0.114086
H	 0.7085473196	 0.0192415089	-2.0050022547	 0.239241
H	 0.7486038379	-3.6700328866	-0.7319957027	 0.233611
H	 1.7505017529	-1.4597126627	-3.2959107248	 0.076827
46.1878	101.2847	149.0803	190.5027	268.5667	302.4195	362.0201	365.6154	458.931	575.7996	742.6429	800.5901	872.7322	915.1518	938.5199	1024.9033	1065.7337	1142.8606	1165.8463	1187.4381	1282.8093	1319.2125	1385.5666	1415.1223	1434.9199	1494.0991	1498.3468	1521.993	1548.806	1699.2506	1835.0174	2864.4602	3001.2081	3032.9196	3078.7903	3104.0664	3122.9765	3466.8337	3621.8063
CCNC(=N)C=O	CCNC(=N)C=O	
InChI=1S/C4H8N2O/c1-2-6-4(5)3-7/h3H,2H2,1H3,(H2,5,6)	InChI=1S/C4H8N2O/c1-2-6-4(5)3-7/h3H,2H2,1H3,(H2,5,6)
