15
gdb 3578	4.8282	3.00542	2.53238	2.1785	60.33	-0.2002	0.0628	0.263	597.7748	0.125193	-304.574737	-304.568657	-304.567712	-304.604302	23.74	
C	-0.2135094353	 1.5744728556	-0.0826971782	-0.285619
N	 0.1643289036	 0.1667317316	 0.0422773639	-0.063868
C	 1.3815267472	-0.4997667017	-0.3006448836	-0.057285
C	 2.6995578151	 0.1678128518	 0.2470928571	-0.07483
N	 2.3465252974	 1.4413384496	 0.9213857662	-0.337043
C	 2.1604564784	 0.1449231509	 1.618436045	-0.074833
C	 0.8298717503	-0.5232174022	 1.1026536781	-0.057287
H	 0.4567215754	 2.1105991114	-0.7571572315	 0.125953
H	-1.2343354355	 1.623235449	-0.4829532544	 0.099218
H	-0.1875256979	 2.0833065508	 0.8826753072	 0.125962
H	 1.386323107	-1.2717782751	-1.0637037599	 0.092277
H	 3.7016329358	-0.0317653639	-0.1088177065	 0.092432
H	 3.2167763368	 1.8433622671	 1.2702102521	 0.230217
H	 2.6542867964	-0.0762229973	 2.5553905505	 0.092432
H	 0.3226770653	-1.3169977276	 1.6420518137	 0.092277
126.3798	233.3921	275.8556	389.2456	509.4418	637.4694	721.0143	737.3539	742.4063	798.906	852.5408	877.3319	896.5404	919.9279	936.7793	1019.5996	1036.3106	1051.475	1105.143	1107.7072	1140.6888	1174.8568	1226.1747	1229.8116	1290.8695	1298.6907	1346.1127	1406.7019	1455.0818	1482.1166	1499.6961	3014.6228	3096.2186	3135.6057	3150.1744	3160.8107	3195.2857	3208.9196	3466.1203
CN1C2C3NC3C12	CN1[C@H]2[C@H]3N[C@H]3[C@@H]12	
InChI=1S/C5H8N2/c1-7-4-2-3(6-2)5(4)7/h2-6H,1H3	InChI=1S/C5H8N2/c1-7-4-2-3(6-2)5(4)7/h2-6H,1H3/t2-,3+,4-,5+,7?
