16
gdb 2866	6.2489	1.33991	1.27851	1.4757	56.97	-0.2542	0.0648	0.319	947.205	0.137167	-362.870426	-362.86265	-362.861706	-362.902952	27.619	
O	-0.0727763428	 1.2518350838	-0.7329527036	-0.42034
C	 0.0580343311	 0.1546429142	 0.1554371781	-0.066921
C	-1.2657118743	-0.5568874154	 0.3198515491	-0.037366
N	-1.708954841	-1.3332303544	-0.8586373104	-0.362095
C	-1.4571676403	-2.0283153051	 0.4225508994	-0.037318
C	-0.3614362985	-3.0690693862	 0.380639957	-0.066939
O	-0.7835985018	-4.2082162573	-0.3503486308	-0.420332
H	-0.410106827	 0.8850191517	-1.5587227494	 0.288599
H	 0.8322025038	-0.5436827805	-0.1889643099	 0.09295
H	 0.3851895235	 0.5704924417	 1.1143013847	 0.111314
H	-2.0238610048	 0.0548376108	 0.8068322178	 0.094046
H	-2.7068120742	-1.2137445071	-1.0069574843	 0.23746
H	-2.3373230735	-2.3543284802	 0.9749960642	 0.094048
H	 0.5584652545	-2.645097169	-0.0431815153	 0.092971
H	-0.1332589983	-3.4185723956	 1.3931439866	 0.111326
H	-1.0308389364	-3.8849874614	-1.2247748631	 0.288596
59.7835	88.6641	163.7279	215.5263	310.6583	396.7225	435.4806	437.1325	498.5221	590.3303	790.136	843.1392	896.624	973.7938	979.5759	996.9269	1039.388	1069.1122	1071.8563	1144.9818	1176.3037	1209.5567	1260.1746	1272.6978	1284.4783	1354.7099	1374.8355	1396.9269	1425.4979	1445.1311	1483.2199	1493.0264	1503.5201	3007.375	3025.4886	3074.9711	3079.0224	3115.4641	3127.1004	3510.847	3793.0775	3793.7255
OCC1NC1CO	OC[C@H]1N[C@H]1CO	
InChI=1S/C4H9NO2/c6-1-3-4(2-7)5-3/h3-7H,1-2H2	InChI=1S/C4H9NO2/c6-1-3-4(2-7)5-3/h3-7H,1-2H2/t3-,4+
