19
gdb 2105	4.5382	2.20672	1.62776	1.3187	67.35	-0.2438	0.089	0.3328	810.707	0.173694	-310.937414	-310.930499	-310.929555	-310.967853	26.989	
C	-0.0271825113	 1.5663556585	 0.0107797179	-0.402312
C	 0.0271207469	 0.0374108928	 0.0022270326	 0.044661
C	 0.7189477621	-0.514204354	-1.2556890053	-0.193162
C	 0.8351588596	-2.0386012799	-1.1891478225	-0.077852
O	 1.512657284	-2.4671423944	-0.0200585967	-0.242356
C	 0.8490636181	-2.0512664664	 1.1615134005	-0.077851
C	 0.7337446031	-0.5276824303	 1.2458517515	-0.193164
H	 0.982066659	 1.9945894511	 0.0070381093	 0.113675
H	-0.5542959051	 1.9500933192	-0.8694635296	 0.109437
H	-0.5436903683	 1.9405659094	 0.9013519277	 0.109436
H	-1.0064485332	-0.3424593017	 0.0062927789	 0.067219
H	 0.1688687532	-0.2245872609	-2.1595363813	 0.089027
H	 1.7262174458	-0.0844903234	-1.3370277479	 0.098928
H	-0.172187712	-2.4909259499	-1.2265715796	 0.080092
H	 1.4082861899	-2.4308590515	-2.0345246474	 0.103087
H	-0.1578002673	-2.5040295037	 1.2059740239	 0.080092
H	 1.4321252115	-2.4525782039	 1.9957739686	 0.103087
H	 1.7419307282	-0.0988010951	 1.3199050964	 0.098928
H	 0.1944057559	-0.247863416	 2.1592079728	 0.089027
157.8843	219.9517	247.134	302.4818	347.2106	409.7222	444.745	480.6185	598.1339	789.3281	817.7159	867.9751	886.6983	968.4333	989.0942	1000.79	1002.3153	1020.1954	1103.582	1120.3873	1184.6267	1186.7699	1201.2757	1268.0512	1284.7713	1309.9156	1331.3239	1347.8098	1375.5881	1390.3126	1396.1687	1412.4381	1426.1891	1469.2811	1482.944	1492.8661	1496.1304	1499.5181	1504.6744	2943.3183	2949.4762	2982.2085	3015.9476	3018.4012	3025.5462	3061.2648	3064.2558	3079.218	3081.9901	3091.2534	3095.1003
CC1CCOCC1	CC1CCOCC1	
InChI=1S/C6H12O/c1-6-2-4-7-5-3-6/h6H,2-5H2,1H3	InChI=1S/C6H12O/c1-6-2-4-7-5-3-6/h6H,2-5H2,1H3
