15
gdb 3063	9.34082	1.02159	0.97911	1.2051	68.15	-0.2372	0.0336	0.2708	1179.1573	0.124055	-308.465594	-308.457674	-308.456729	-308.498872	27.208	
O	 0.057232511	 1.1382750019	-0.7469830315	-0.409675
C	-0.0479146116	 0.0948871333	 0.2171969503	-0.216616
C	-1.3832846829	-0.482903987	 0.1820746354	 0.084928
C	-2.4833483896	-0.9752757465	 0.1696502607	 0.082674
C	-3.7940654956	-1.5536207082	 0.1535104437	-0.156034
C	-4.4416156251	-1.9337645507	-1.1701758988	-0.249436
C	-3.9825468289	-3.0126578016	-0.2371662297	-0.251951
H	 0.9504745211	 1.4926448215	-0.687238666	 0.286904
H	 0.6941596306	-0.6975465001	 0.0239466194	 0.112643
H	 0.1521121028	 0.4731334423	 1.2334244079	 0.114154
H	-4.4717457377	-1.1807863073	 0.9162037314	 0.109059
H	-5.5053472572	-1.7497963119	-1.2694060596	 0.118642
H	-3.8630624248	-1.7535130147	-2.0680062535	 0.130705
H	-3.091254984	-3.5695818108	-0.4997591015	 0.12615
H	-4.7277853081	-3.5781624502	 0.3107442817	 0.117855
31.4266	98.4551	122.3274	224.5089	230.3834	299.9636	443.5956	505.4136	565.0736	696.6492	794.3423	823.144	894.8965	898.0352	1024.2168	1028.6135	1061.2584	1069.3446	1079.828	1118.5604	1181.1734	1200.6483	1228.8823	1247.2248	1256.3751	1391.952	1459.7569	1466.8188	1497.5682	1501.4557	2363.5361	2958.7804	2975.7327	3141.3006	3142.3689	3147.7214	3226.5723	3241.6943	3814.2797
OCC#CC1CC1	OCC#CC1CC1	
InChI=1S/C6H8O/c7-5-1-2-6-3-4-6/h6-7H,3-5H2	InChI=1S/C6H8O/c7-5-1-2-6-3-4-6/h6-7H,3-5H2
