16
gdb 801	4.56843	1.61921	1.53383	1.4965	60.35	-0.2437	0.0114	0.255	867.5699	0.133694	-362.875317	-362.866609	-362.865665	-362.908204	30.765	
C	 0.0205596103	 1.4993084436	 0.1477593478	-0.415591
C	-0.0253205243	-0.0173785091	-0.0758273691	 0.053065
O	 0.7198276783	-0.7102397603	 0.9247032823	-0.436631
C	-1.440317871	-0.5486722632	-0.0123808808	 0.392023
C	-2.1661766772	-0.5790642558	 1.303131357	-0.477579
N	-1.9295848031	-0.9276037851	-1.1297419694	-0.182949
O	-3.2619293104	-1.3487040628	-0.9988197661	-0.397157
H	 1.0559367208	 1.8582599537	 0.1065204954	 0.10852
H	-0.546014488	 2.021746859	-0.628609943	 0.13104
H	-0.3929879719	 1.7642564722	 1.1254626838	 0.127038
H	 0.3612329963	-0.2456374335	-1.078232046	 0.085452
H	 1.5877798868	-0.2984769347	 0.981331086	 0.283997
H	-2.9215022746	 0.2139306168	 1.3488476835	 0.137495
H	-2.6986815505	-1.5268062646	 1.4145588242	 0.148281
H	-1.4635820662	-0.455951111	 2.127569678	 0.137379
H	-3.4698830252	-1.6387458853	-1.8931567335	 0.305618
69.1144	105.7981	181.1038	230.8354	246.8149	273.1365	296.655	357.6767	378.0083	447.6017	518.96	582.3471	640.4971	788.3155	897.5568	970.0125	1002.8544	1041.1228	1043.1686	1099.086	1133.7402	1214.4164	1291.8288	1361.996	1376.8364	1395.8053	1403.2335	1431.4342	1476.4267	1483.6725	1494.6367	1504.2556	1735.4195	3015.3289	3028.8772	3043.249	3097.6746	3107.0835	3121.996	3154.6304	3820.6584	3820.9023
CC(O)C(C)=NO	C[C@@H](O)C(=NO)C	
InChI=1S/C4H9NO2/c1-3(5-7)4(2)6/h4,6-7H,1-2H3	InChI=1S/C4H9NO2/c1-3(5-7)4(2)6/h4,6-7H,1-2H3/t4-/m1/s1
