13
gdb 3417	5.03118	2.97575	2.12927	3.7131	55.26	-0.2491	0.0167	0.2658	606.6364	0.104511	-340.620847	-340.615369	-340.614425	-340.65004	20.924	
N	-0.1014443021	 1.2424006655	 0.2736252717	-0.552575
C	-0.0384604085	 0.0131129476	-0.0042801826	 0.472686
O	 1.1116689601	-0.6785989571	-0.2772136334	-0.250151
C	 0.8291871849	-1.9805041024	-0.8245838345	-0.082734
C	-0.6589241667	-2.1948655978	-0.6361475498	-0.059807
N	-1.0351330574	-2.0967359264	 0.7809458877	-0.328114
C	-1.1964155135	-0.9162224284	-0.1138413334	-0.133938
H	 0.8285922295	 1.6641804135	 0.2443733231	 0.223895
H	 1.1039501898	-1.9866625511	-1.8859375431	 0.114709
H	 1.4367181544	-2.7130436158	-0.2858266079	 0.128792
H	-1.2097867706	-2.8347520928	-1.3156290647	 0.107149
H	-1.9533947025	-2.5157871184	 0.9138234399	 0.241268
H	-2.1796338874	-0.5211978666	-0.3299142829	 0.11882
158.3749	253.3024	396.4806	426.3167	612.2571	698.5687	762.3154	821.7728	851.9103	868.5388	889.2872	909.8037	958.1822	1000.6073	1024.5494	1081.7661	1103.6532	1146.5437	1160.9145	1229.3644	1255.3721	1277.9377	1371.0727	1407.1991	1415.755	1505.4583	1785.4022	3037.3941	3095.4715	3183.7823	3219.0004	3472.2742	3494.5751
N=C1OCC2NC12	[NH][C]1OC[C@H]2N[C@@H]12	
InChI=1S/C4H6N2O/c5-4-3-2(6-3)1-7-4/h2-3,5-6H,1H2	InChI=1S/C4H6N2O/c5-4-3-2(6-3)1-7-4/h2-3,5-6H,1H2/t2-,3-/m1/s1
