17
gdb 2686	11.33201	0.7931	0.7551	1.2395	69.68	-0.2409	0.0626	0.3035	1480.7669	0.145999	-309.693494	-309.684126	-309.683182	-309.729923	30.645	
C	-0.009339192	 1.4841590047	 0.0101676688	-0.496854
C	 0.0036844145	 0.027888954	 0.0023376926	 0.109403
C	 0.0232746572	-1.1759743935	-0.0043253661	 0.023752
C	 0.0140025605	-2.6349233682	-0.0119877852	-0.354589
C	-1.4076974311	-3.2285366954	-0.0018808874	-0.153775
C	-1.3965653738	-4.7511664621	-0.0101936562	-0.074188
O	-2.7438729276	-5.1962388453	 0.0000968942	-0.422044
H	 1.007660259	 1.8921604099	 0.002939558	 0.145161
H	-0.5310100347	 1.8839205041	-0.8666368827	 0.14538
H	-0.5146937122	 1.8745896062	 0.9006264881	 0.145378
H	 0.5555100222	-3.0007813215	-0.8953581055	 0.123236
H	 0.5718492241	-3.0100910892	 0.8571887836	 0.123241
H	-1.9481438425	-2.8801214696	 0.8841876055	 0.116694
H	-1.9645843485	-2.8706374176	-0.8738729659	 0.116691
H	-0.8624798449	-5.1148679103	-0.9041393469	 0.083586
H	-0.8457711479	-5.1244353402	 0.8695592937	 0.083584
H	-2.7433749623	-6.1577377161	-0.0052787986	 0.285344
8.8899	72.3706	79.2944	107.7689	215.3753	226.976	261.0161	308.7089	385.4284	400.7197	520.995	753.9654	768.7447	864.2475	1018.5688	1027.5395	1053.8505	1054.3176	1083.373	1115.7942	1169.7371	1212.7447	1230.0665	1298.1263	1303.0873	1309.8865	1372.8462	1415.5801	1464.909	1476.4818	1479.2656	1480.0478	1498.428	1528.1296	2375.3084	2953.2787	2978.0399	3004.4002	3024.9129	3030.3568	3053.4983	3084.5279	3084.5396	3099.3205	3830.6881
CC#CCCCO	CC#CCCCO	
InChI=1S/C6H10O/c1-2-3-4-5-6-7/h7H,4-6H2,1H3	InChI=1S/C6H10O/c1-2-3-4-5-6-7/h7H,4-6H2,1H3
