15
gdb 3167	5.76932	2.39202	1.96497	1.7581	61.59	-0.2443	0.024	0.2683	675.5181	0.125783	-308.508949	-308.502907	-308.501962	-308.538944	23.201	
C	-0.0429332342	 1.4610089487	 0.0103854548	-0.246506
O	 1.1682066305	 0.7002633477	-0.0055159437	-0.266159
C	-0.0801797574	-0.0031599738	 0.0028300381	 0.431705
C	-0.3801751354	-0.8542320767	 1.2433714678	-0.333935
C	-0.6032001468	-2.2284509975	 0.6623123764	-0.06233
C	-0.616170758	-2.2212473569	-0.6703618001	-0.06233
C	-0.4043531815	-0.840804185	-1.2407634674	-0.333936
H	-0.2434675018	 2.0042514956	 0.934066479	 0.108237
H	-0.2613482289	 2.0141888485	-0.9032884248	 0.108237
H	 0.4609569231	-0.8068067472	 1.9446020294	 0.124068
H	-1.2661101868	-0.4944059358	 1.7843850342	 0.110162
H	-0.7468843398	-3.1049476411	 1.2838859921	 0.094278
H	-0.7720178119	-3.0909886022	-1.2984598345	 0.094278
H	-1.3006126388	-0.4752443793	-1.7605101034	 0.110162
H	 0.4229755379	-0.7857139949	-1.9576797879	 0.124068
68.3257	305.2115	364.6493	400.3222	400.8158	519.9603	691.3481	781.8263	782.1452	810.0724	891.1522	949.2266	961.4116	971.5098	979.1705	981.4103	1043.0889	1126.0396	1129.789	1155.4431	1161.9059	1208.2582	1219.6301	1285.6933	1289.1654	1372.5051	1424.6544	1469.5692	1475.4649	1533.6265	1687.2385	3013.3888	3015.0508	3060.9731	3061.3432	3070.3882	3153.2967	3186.4334	3211.0329
C1OC11CC=CC1	C1O[C@]21CC=CC2	
InChI=1S/C6H8O/c1-2-4-6(3-1)5-7-6/h1-2H,3-5H2	InChI=1S/C6H8O/c1-2-4-6(3-1)5-7-6/h1-2H,3-5H2
