10
gdb 4739	6.96497	1.38577	1.15581	3.6918	58.43	-0.2505	-0.0693	0.1811	910.9971	0.061569	-413.493221	-413.486966	-413.486022	-413.523728	22.617	
O	 0.1193396595	 1.3381393816	-0.0852448218	-0.421428
C	 0.069492786	 0.0002045925	-0.0704083949	 0.333643
C	-0.0383023464	-0.84740283	-1.1352303747	-0.131481
O	-0.0512130458	-2.118783005	-0.6354270191	-0.151822
C	 0.0493044607	-1.9647526347	 0.6996731932	 0.302292
N	 0.1245726537	-0.7226336005	 1.0930108596	-0.372044
C	 0.0622557925	-3.1298919193	 1.506776459	 0.273951
N	 0.0728028908	-4.0810948782	 2.1652730488	-0.320462
H	 0.1957067144	 1.634214213	 0.8306680223	 0.317479
H	-0.1094748154	-0.7312826294	-2.2007137623	 0.169871
146.8037	162.9909	335.7407	378.3898	405.96	496.1119	562.6516	587.63	670.4564	731.7367	737.7022	747.7384	992.0908	1034.8875	1136.6175	1182.629	1256.9051	1346.8034	1406.4325	1553.3551	1676.4692	2357.384	3316.7307	3801.2815
OC1=COC(=N1)C#N	Oc1coc(n1)C#N	
InChI=1S/C4H2N2O2/c5-1-4-6-3(7)2-8-4/h2,7H	InChI=1S/C4H2N2O2/c5-1-4-6-3(7)2-8-4/h2,7H
