16
gdb 4549	3.92281	1.668	1.1847	2.3547	68.62	-0.1718	0.0544	0.2262	980.0176	0.130838	-379.942358	-379.933874	-379.932929	-379.975026	30.878	
C	-0.062501394	 1.4624117972	 0.0148055158	-0.342995
N	-0.0114718316	 0.0178285013	-0.0052763613	-0.006084
C	-0.0678516769	-0.7656023565	-1.1473272544	-0.2029
C	 0.0309027332	-2.0775601395	-0.7524842834	 0.326431
O	 0.0248469266	-3.1390959578	-1.6144582413	-0.452154
C	 0.127943961	-2.107371409	 0.6656866135	-0.385018
C	 0.0946505185	-0.7923014976	 1.0949867291	 0.290774
N	 0.2112275229	-0.2215436679	 2.3817325951	-0.607798
H	 0.3313771894	 1.8085343608	 0.9716407252	 0.155473
H	 0.5513562721	 1.8671536827	-0.7949020858	 0.133718
H	-1.0861504531	 1.8391630824	-0.1048858582	 0.125181
H	-0.1728625349	-0.3288566814	-2.1256252448	 0.109334
H	 0.0960377619	-3.9456152413	-1.0968923476	 0.292488
H	 0.2024706964	-2.9796796301	 1.29874906	 0.075631
H	 0.7065280952	-0.8481106144	 3.0041419271	 0.245292
H	-0.6913260769	-0.0213406887	 2.8039359809	 0.242626
95.9667	142.1185	185.1632	195.6142	221.1677	297.8075	316.7746	350.0685	517.1569	592.5323	605.1045	644.3264	659.178	662.8427	722.7558	816.2707	830.7084	1012.3599	1070.7549	1141.509	1153.9276	1172.1093	1193.5015	1217.4259	1283.9068	1378.9501	1434.3646	1452.6255	1492.5439	1507.6751	1528.6368	1547.3637	1643.6584	1661.7899	3020.259	3087.035	3143.5363	3230.2738	3277.0004	3485.583	3590.383	3848.5198
CN1C=C(O)C=C1N	Cn1cc(O)cc1N	
InChI=1S/C5H8N2O/c1-7-3-4(8)2-5(7)6/h2-3,8H,6H2,1H3	InChI=1S/C5H8N2O/c1-7-3-4(8)2-5(7)6/h2-3,8H,6H2,1H3
