17
gdb 1090	4.34643	1.65721	1.64286	4.3411	61.5	-0.267	0.0121	0.2791	858.7256	0.145148	-346.890723	-346.882225	-346.881281	-346.923014	30.464	
C	-0.0277236397	 1.5687213614	 0.0400841463	-0.410044
C	 0.0339819861	 0.036793386	 0.0502525975	 0.341025
C	 0.7467755824	-0.5063568711	 1.29426122	-0.40992
C	-1.3699155895	-0.5579409026	-0.066929432	-0.395032
O	 0.6997250907	-0.4478676337	-1.1622128107	-0.221447
C	 1.9752583688	-0.1225102585	-1.4133516916	 0.166055
O	 2.552135898	-0.4993020247	-2.3926636436	-0.283864
H	 0.9611362854	 2.024501294	 0.1419782642	 0.120998
H	-0.4786664996	 1.9246044302	-0.8904042647	 0.134331
H	-0.6404722807	 1.9207359894	 0.8755143522	 0.125546
H	 0.1728551717	-0.2531743256	 2.1908296634	 0.125516
H	 0.8330686866	-1.5950109743	 1.2377416641	 0.134308
H	 1.748931229	-0.0855233496	 1.4149017926	 0.120977
H	-1.85875911	-0.2043879586	-0.9783436917	 0.129857
H	-1.3194352419	-1.6490599639	-0.1062163427	 0.129887
H	-1.9792886859	-0.2662142211	 0.7931275884	 0.116913
H	 2.4404120185	 0.5176586429	-0.6431727418	 0.074893
105.8592	137.1758	204.0534	207.6904	246.5948	264.6839	344.5588	347.0739	368.4955	458.432	483.5645	580.3916	787.659	918.7618	926.1005	941.1116	964.7244	1047.0409	1048.5947	1056.4816	1176.8178	1223.2042	1263.5658	1284.5268	1402.383	1403.5377	1426.9663	1438.1468	1472.1627	1482.1107	1484.0788	1500.382	1504.375	1516.903	1851.0583	2980.4453	3041.5054	3043.7887	3050.943	3111.2746	3115.8672	3120.6743	3121.5164	3128.0082	3129.278
CC(C)(C)OC=O	CC(C)(C)OC=O	
InChI=1S/C5H10O2/c1-5(2,3)7-4-6/h4H,1-3H3	InChI=1S/C5H10O2/c1-5(2,3)7-4-6/h4H,1-3H3
