13
gdb 710	7.69936	4.03933	3.91927	1.5349	52.	-0.2206	0.0711	0.2917	427.1373	0.109407	-249.257629	-249.253018	-249.252074	-249.285119	18.623	
C	-0.0227584991	 1.4938766167	-0.0747558053	-0.298946
C	 1.322695525	 0.8208788098	-0.0164369051	-0.068999
C	 0.058542928	-0.0025877079	 0.0385755833	 0.009836
N	 0.4267533059	-0.8019134555	-1.201995611	-0.143805
C	 0.615651831	 0.0976657587	-2.3592022883	-0.244942
C	 1.6579087293	 0.0571438583	-1.3129118886	-0.025144
H	-0.3104276639	 1.9653286143	 0.8605558246	 0.118101
H	-0.3863469914	 2.0244802082	-0.9473748533	 0.114959
H	 2.0516533783	 1.0190911507	 0.7574047859	 0.095263
H	-0.3932143408	-0.557630059	 0.8504605811	 0.103422
H	 0.8178501826	-0.4622744659	-3.2681977759	 0.122209
H	-0.0237353152	 0.9593539331	-2.5107679192	 0.119821
H	 2.62921484	-0.3988858716	-1.4770283782	 0.098226
321.4589	444.6169	541.085	683.9949	705.721	731.2095	791.3471	885.1355	894.4624	916.1296	960.6029	1001.6998	1027.6397	1045.7229	1059.6769	1069.4219	1090.2675	1111.3449	1136.3839	1184.1358	1231.7601	1273.1451	1331.6561	1362.8015	1471.902	1522.0732	3122.8494	3134.7491	3156.1457	3191.6386	3200.1947	3208.6542	3214.6487
C1C2C1N1CC21	C1[C@H]2[C@@H]1N1C[C@@H]21	
InChI=1S/C5H7N/c1-3-4(1)6-2-5(3)6/h3-5H,1-2H2	InChI=1S/C5H7N/c1-3-4(1)6-2-5(3)6/h3-5H,1-2H2/t3-,4+,5-,6?/m0/s1
