17
gdb 2911	4.88246	1.89835	1.68988	2.9632	63.7	-0.243	-0.0171	0.2259	793.835	0.149301	-309.744522	-309.737233	-309.736288	-309.777869	25.43	
O	-0.6900101742	 0.6103405148	-0.0442859318	-0.255485
C	-0.0920163982	 1.6561579331	-0.0148418311	 0.169239
C	 1.4128811831	 1.7885325597	 0.027593103	-0.074772
C	 1.9372430708	 2.6377303247	-1.1583107725	-0.225817
C	 1.7987905728	 4.1138603907	-0.7134323776	-0.198411
C	 1.7382564134	 4.0946565892	 0.8409535431	-0.199157
C	 1.8724245836	 2.6112759948	 1.2576264699	-0.225351
H	-0.6493158592	 2.6238204851	-0.0183122075	 0.067617
H	 1.8211832204	 0.7746436327	 0.0270903388	 0.087469
H	 2.9906470718	 2.3832881175	-1.3155820728	 0.109357
H	 1.4168135936	 2.4256149985	-2.0970731983	 0.108246
H	 2.6307015027	 4.7171635238	-1.0861480974	 0.103943
H	 0.8875121826	 4.5572052529	-1.1255087283	 0.106158
H	 2.5233019259	 4.7060668167	 1.2935231887	 0.103561
H	 0.7866146835	 4.5064769337	 1.1900735809	 0.106285
H	 1.311310177	 2.3712704362	 2.1657729706	 0.108095
H	 2.9204834705	 2.3636519458	 1.4569239924	 0.109023
16.9703	60.3777	136.3489	280.9169	316.0721	440.0761	631.8144	662.4878	797.4385	810.7074	888.1685	888.6464	893.0926	935.5878	979.8082	1021.6123	1032.6609	1060.4829	1110.5041	1184.3746	1205.0375	1231.9807	1233.7484	1287.0289	1296.0647	1314.2856	1345.1548	1350.9864	1356.0548	1441.1465	1485.7289	1496.0829	1497.0856	1519.4574	1829.9883	2842.3286	3044.3717	3045.715	3050.1492	3061.8606	3077.6826	3084.7381	3087.2458	3094.6191	3109.0801
O=CC1CCCC1	O=CC1CCCC1	
InChI=1S/C6H10O/c7-5-6-3-1-2-4-6/h5-6H,1-4H2	InChI=1S/C6H10O/c7-5-6-3-1-2-4-6/h5-6H,1-4H2
