13
gdb 63	7.92874	3.8272	2.82581	0.6578	51.2	-0.2589	0.0571	0.316	481.9854	0.112471	-195.186772	-195.180446	-195.179502	-195.215658	22.569	
C	-0.0176343381	 1.5485946773	-0.0025358376	-0.375564
C	-0.0171917953	 0.0073578922	 0.0326960373	-0.118477
C	 0.7581846326	-0.5282015479	 1.2527886165	-0.375559
C	-1.3821330325	-0.5176843814	 0.0077551557	 0.337406
C	-2.5079639235	-0.9400562892	 0.0047855212	-0.494329
H	 1.0094439606	 1.9263961261	-0.0263283039	 0.112341
H	-0.5451461405	 1.9221705174	-0.8839345934	 0.125214
H	-0.5124299994	 1.9533989202	 0.8856064238	 0.125408
H	 0.4936617877	-0.3490415526	-0.8726589027	 0.106473
H	 0.2896845785	-0.1934537198	 2.1833467874	 0.125407
H	 0.7783339211	-1.6210250585	 1.2578372671	 0.125215
H	 1.789524916	-0.1618172652	 1.2357495412	 0.112337
H	-3.4999824372	-1.3181016485	-0.0072357227	 0.194127
179.7192	212.0002	227.3806	278.7334	349.7339	529.9018	540.9697	624.0917	630.0102	775.4556	931.3507	935.0518	965.0389	1121.8169	1123.5325	1190.7816	1323.82	1347.0008	1395.4443	1417.1346	1485.4783	1489.2088	1497.8571	1509.974	2233.562	3007.7486	3036.6843	3040.4705	3107.9553	3113.5191	3120.1346	3122.0093	3505.6356
CC(C)C#C	CC(C)C#C	
InChI=1S/C5H8/c1-4-5(2)3/h1,5H,2-3H3	InChI=1S/C5H8/c1-4-5(2)3/h1,5H,2-3H3
