15
gdb 1762	4.55885	1.93595	1.74216	5.2004	62.02	-0.2505	0.0305	0.281	775.4731	0.124694	-304.694187	-304.686466	-304.685521	-304.725627	27.938	
C	 0.0516314276	 1.5152498834	-0.0099852689	-0.415091
C	 0.05579711	 0.005607132	 0.0295635074	-0.019115
C	 1.3033325438	-0.7859325367	-0.2421459062	-0.314841
C	 0.7656427987	-0.7376899786	 1.1761912895	 0.142584
N	 1.5309092813	-0.0744221086	 2.2000808104	-0.563252
C	 0.0899005991	-1.927759121	 1.6532816513	 0.286425
N	-0.4801169755	-2.8633151456	 2.0247577971	-0.347523
H	 0.9775812201	 1.9320000512	 0.3963370549	 0.108741
H	-0.0503461709	 1.8738811727	-1.0393283362	 0.132242
H	-0.7827613661	 1.9241441697	 0.5697571553	 0.129125
H	-0.8686601936	-0.4607021552	-0.2981453818	 0.11323
H	 1.2318217643	-1.7214605197	-0.7835222588	 0.142205
H	 2.2269578356	-0.2399304009	-0.4116859362	 0.121165
H	 2.3341137743	 0.407675295	 1.8200805614	 0.240823
H	 0.9705561612	 0.5878528324	 2.7250766207	 0.243282
136.4992	156.9801	174.1991	184.7197	260.2921	334.4241	408.3202	461.4899	575.4739	582.9128	677.2592	752.6368	787.5285	872.3022	911.2898	959.9032	1018.6034	1054.7706	1089.7848	1128.1544	1181.5936	1202.0483	1307.0347	1315.9354	1400.3113	1420.9333	1479.7819	1490.9619	1501.5274	1653.2761	2350.2495	3035.9296	3099.1239	3108.6971	3130.6559	3156.9763	3225.4042	3523.3042	3622.9935
CC1CC1(N)C#N	C[C@H]1C[C@]1(N)C#N	
InChI=1S/C5H8N2/c1-4-2-5(4,7)3-6/h4H,2,7H2,1H3	InChI=1S/C5H8N2/c1-4-2-5(4,7)3-6/h4H,2,7H2,1H3/t4-,5-/m0/s1
