14
gdb 969	3.68209	3.27141	1.75124	1.4469	60.22	-0.1779	0.0499	0.2278	693.774	0.113648	-324.612512	-324.605191	-324.604247	-324.644231	26.031	
C	-0.0244811067	 1.5234022824	 0.097585314	-0.512099
C	 0.0174125609	 0.0380341564	-0.0139181613	 0.224803
C	 0.0525350955	-0.7759803237	-1.1256496938	 0.255022
O	 0.0540441596	-0.292309391	-2.407394258	-0.455144
C	 0.0848037088	-2.1331238928	-0.6994217248	-0.279084
C	 0.0684679827	-2.1148569863	 0.6779222058	-0.077837
N	 0.0280472579	-0.8092048944	 1.079711148	-0.291473
H	 0.8438754031	 1.9306012865	 0.6322379979	 0.119532
H	-0.0266906437	 1.9566308658	-0.9051736454	 0.150263
H	-0.9241045005	 1.8818847253	 0.6151302716	 0.119478
H	 0.0813210135	-1.0381057173	-3.0120650502	 0.293702
H	 0.1160817558	-3.0115354857	-1.3272105058	 0.083518
H	 0.0823158629	-2.9216136561	 1.3924963226	 0.113816
H	 0.0085146902	-0.499604689	 2.0350908493	 0.255502
42.9169	134.6763	218.8765	247.6876	315.2003	412.7905	440.2045	627.9983	638.2613	666.8019	693.2881	729.2563	777.8343	911.8882	975.2841	1062.9578	1086.4591	1091.0378	1155.8666	1261.2345	1297.3932	1326.9743	1414.6019	1454.5295	1483.8215	1487.3193	1506.5093	1524.6437	1675.804	3006.8557	3046.3736	3124.9307	3234.7401	3269.6166	3686.1375	3854.8663
CC1=C(O)C=CN1	Cc1c(O)cc[nH]1	
InChI=1S/C5H7NO/c1-4-5(7)2-3-6-4/h2-3,6-7H,1H3	InChI=1S/C5H7NO/c1-4-5(7)2-3-6-4/h2-3,6-7H,1H3
