16
gdb 1178	4.02273	1.86096	1.73085	3.3517	60.86	-0.2984	0.0188	0.3172	810.387	0.134607	-325.79684	-325.788454	-325.787509	-325.82893	30.161	
C	-0.0033043292	 1.555090994	 0.141469917	-0.401677
C	-0.0373033436	 0.0342224918	-0.0254612124	-0.194556
C	 0.7000009896	-0.4732372792	-1.2903099941	 0.202999
C	 0.1031332826	 0.0669590433	-2.5951684491	-0.399078
O	 2.0665921022	-0.0735249809	-1.2917380312	-0.437963
C	 0.6266893592	-1.9570793341	-1.2984928396	 0.250989
N	 0.5849097039	-3.1118900962	-1.2731891127	-0.336237
H	 1.0221173865	 1.92949936	 0.085627216	 0.133081
H	-0.592136552	 2.063802944	-0.6269229994	 0.125632
H	-0.4186655423	 1.8356971182	 1.1133313145	 0.121657
H	 0.429472518	-0.4455076547	 0.8441699633	 0.10701
H	-1.0700549599	-0.3308826505	-0.0547594517	 0.119371
H	 0.218183456	 1.1520914259	-2.6237810356	 0.138006
H	 0.6309672232	-0.3596779719	-3.4501978497	 0.145801
H	-0.9570467101	-0.1859939182	-2.6694655568	 0.132974
H	 2.4947359858	-0.4474624215	-0.5128292885	 0.291991
103.4243	155.0043	184.7294	205.9789	255.4818	288.9854	338.2441	360.8721	399.691	463.5914	573.0639	592.6702	708.8318	788.2937	894.3892	939.3483	1005.0592	1011.3735	1069.6882	1139.6994	1183.9843	1200.1965	1291.6151	1363.2739	1381.4719	1409.7732	1412.8581	1475.4963	1483.5265	1494.4711	1503.9995	1512.6699	2349.5408	3028.8139	3049.478	3061.4388	3071.2802	3116.7545	3127.3303	3142.8455	3146.4149	3800.1432
CCC(C)(O)C#N	CC[C@@](C)(O)C#N	
InChI=1S/C5H9NO/c1-3-5(2,7)4-6/h7H,3H2,1-2H3	InChI=1S/C5H9NO/c1-3-5(2,7)4-6/h7H,3H2,1-2H3/t5-/m1/s1
