17
gdb 4112	3.87215	1.36681	1.10525	0.8625	68.35	-0.2452	0.0022	0.2475	1066.4433	0.14023	-400.94407	-400.935451	-400.934507	-400.977141	31.743	
C	 0.3668661615	 1.6322254453	-0.0741937179	-0.409928
C	 0.1148950712	 0.1308431061	 0.0837836176	-0.123332
C	 0.6617903805	-0.766039385	-1.0945151911	 0.142289
O	 0.9404804776	-0.1758947499	-2.3350145862	-0.425754
C	 1.8430569858	-1.2357953431	-0.1865349582	-0.369431
C	 1.1097170657	-0.5931123464	 0.9727682294	 0.418861
N	 1.1683171708	-0.65496537	 2.2358808176	-0.239493
O	 2.2315399034	-1.4800369364	 2.652208991	-0.393727
H	 1.4254935306	 1.8542706517	-0.2538117521	 0.105585
H	-0.2131608163	 2.0335282248	-0.9107740474	 0.129533
H	 0.0788818304	 2.1637605443	 0.8365501583	 0.135796
H	-0.9362010691	-0.0416672618	 0.3334599159	 0.090369
H	-0.0247277129	-1.5884888169	-1.3080181239	 0.102741
H	 1.5698721519	 0.5398971437	-2.199595169	 0.282064
H	 2.0434373016	-2.3070768554	-0.1133301017	 0.131292
H	 2.7861961103	-0.728103579	-0.4238508136	 0.117414
H	 2.142842377	-1.455264792	 3.6110412614	 0.305723
64.408	147.2187	187.935	213.2463	247.6028	295.8701	346.7459	387.9685	411.5967	453.0884	528.1629	593.4737	667.8748	769.7357	817.5483	895.633	958.8855	966.011	1009.1047	1043.2323	1087.673	1115.254	1139.1114	1187.3682	1194.6614	1252.3577	1277.0586	1306.4234	1335.8188	1398.5934	1408.8599	1435.7088	1454.5768	1492.3985	1503.3758	1783.2296	3029.4068	3037.7509	3060.4177	3087.222	3097.7673	3110.624	3120.4948	3815.6143	3816.8022
CC1C(O)CC1=NO	C[C@H]1[C@@H](O)CC1=NO	
InChI=1S/C5H9NO2/c1-3-4(6-8)2-5(3)7/h3,5,7-8H,2H2,1H3	InChI=1S/C5H9NO2/c1-3-4(6-8)2-5(3)7/h3,5,7-8H,2H2,1H3/t3-,5+/m1/s1
