16
gdb 396	5.34544	2.4935	2.04825	2.2435	53.28	-0.2545	0.079	0.3335	670.6307	0.141335	-308.757315	-308.74959	-308.748646	-308.788936	26.699	
C	-0.1667862476	 1.2593226054	-0.007562418	-0.233981
O	 0.1412060245	-0.1145308233	-0.0250749691	-0.261531
C	 0.7303542009	-0.6301542595	 1.1682417107	 0.121184
C	-0.2787457374	-0.748607573	 2.3119562438	-0.396844
C	 1.2971797066	-1.9896225519	 0.7510085591	-0.058723
O	 0.2875425369	-2.8396125245	 0.2414085456	-0.422736
H	 0.7169696786	 1.8677387802	 0.2397888569	 0.105624
H	-0.5058323057	 1.5260195781	-1.011912804	 0.128052
H	-0.9660511712	 1.5062418417	 0.7053143489	 0.110902
H	 1.5660778031	 0.0228186655	 1.4721144022	 0.061402
H	-0.7396165306	 0.2136644023	 2.5503570096	 0.112512
H	-1.0618079537	-1.4618446165	 2.0435984405	 0.135356
H	 0.2213122991	-1.1087549858	 3.2168261522	 0.115999
H	 2.0937806045	-1.8258592997	 0.0090123237	 0.08844
H	 1.7371082878	-2.4955488742	 1.6166414664	 0.103458
H	-0.166585246	-2.3231186048	-0.4353447187	 0.290887
70.5778	122.8602	194.8662	209.5868	245.2352	346.314	353.4909	446.1793	461.3199	655.3096	802.7994	904.1567	921.4726	1004.937	1077.5772	1122.2293	1137.1276	1164.3947	1182.8295	1205.5931	1256.4456	1348.9046	1369.4823	1384.605	1411.3282	1435.0511	1477.6507	1482.4578	1493.8131	1496.6918	1505.246	1513.0749	2960.1794	2981.2942	2989.6582	3032.4026	3046.562	3079.1079	3109.6731	3112.0074	3132.8893	3791.7234
COC(C)CO	CO[C@@H](C)CO	
InChI=1S/C4H10O2/c1-4(3-5)6-2/h4-5H,3H2,1-2H3	InChI=1S/C4H10O2/c1-4(3-5)6-2/h4-5H,3H2,1-2H3/t4-/m0/s1
