14
gdb 2357	5.3462	2.118	1.96036	5.5228	53.35	-0.2563	0.0182	0.2745	684.6153	0.115736	-361.722327	-361.716201	-361.715257	-361.752426	22.655	
O	 0.587972788	 0.5201350603	-0.3118582829	-0.335301
C	-0.1096649409	 1.2141996855	 0.3772226301	 0.427975
O	 0.2081055687	 1.4829645212	 1.6606944862	-0.383252
C	-1.4032986349	 1.8542243475	-0.1143835293	-0.143725
C	-2.5852187929	 1.6673754612	 0.8824592394	-0.17876
N	-2.1559628581	 2.933411578	 1.533289598	-0.333565
H	-2.8848214286	 3.5320116008	 1.907084211	 0.232719
H	-0.4867192436	 2.0622699869	 2.041974584	 0.31125
C	-1.5116315842	 3.3611753734	 0.2634273702	-0.178789
H	-1.5612491518	 1.5747689141	-1.1528247567	 0.106379
H	-3.5523489089	 1.7380591867	 0.3680524816	 0.110438
H	-2.5807162071	 0.7892591664	 1.5340055583	 0.127093
H	-0.5878686839	 3.9334695529	 0.3849229774	 0.127107
H	-2.1861826617	 3.893458835	-0.4196742673	 0.11043
111.6189	219.1501	249.5569	333.9425	433.1168	602.4715	703.772	757.652	823.3217	851.7829	853.821	942.7997	972.4157	986.8425	1031.4328	1035.6588	1097.9656	1117.6087	1199.5309	1200.7991	1257.4121	1273.0874	1321.1053	1356.4921	1365.9878	1429.9171	1506.1665	1533.1544	1864.3922	3015.9426	3020.7185	3091.9092	3092.2085	3154.4401	3468.8307	3525.0459
[O-]C(=O)C1C[NH2+]C1	O=C(O)C1CNC1	
InChI=1S/C4H7NO2/c6-4(7)3-1-5-2-3/h3,5H,1-2H2,(H,6,7)	InChI=1S/C4H7NO2/c6-4(7)3-1-5-2-3/h3,5H,1-2H2,(H,6,7)
