14
gdb 2067	5.00499	2.62211	1.84241	2.0038	54.75	-0.2642	0.0132	0.2774	669.8514	0.115801	-361.72362	-361.717616	-361.716672	-361.753597	22.244	
N	-0.0603125496	 1.3140903325	-0.1482753233	-0.498244
C	-0.018378149	 0.0645558294	 0.037283329	 0.376473
C	-1.2702513523	-0.7811551062	 0.0895809343	-0.264127
C	-1.0988383513	-1.9758959455	 1.0289501962	-0.105362
O	 0.1162919776	-2.6467888835	 0.7115135445	-0.218642
C	 1.1974643459	-1.8035331397	 0.9122810302	 0.01481
O	 1.1655223139	-0.6245118231	 0.0995373746	-0.252242
H	 0.8890885515	 1.6918571061	-0.1912512254	 0.22076
H	-2.1139413578	-0.1490711812	 0.3714879219	 0.134313
H	-1.4537541584	-1.1604306091	-0.9228920818	 0.138901
H	-1.0805711762	-1.6494676775	 2.081165186	 0.10393
H	-1.9039271943	-2.7033731475	 0.9082758325	 0.122559
H	 1.2556632994	-1.4865737088	 1.9677248871	 0.095918
H	 2.1024511103	-2.3404791759	 0.6250420342	 0.130953
106.7147	186.1206	372.5191	420.8665	452.6137	498.8805	588.9847	732.9029	785.2502	875.979	924.121	935.649	1006.131	1022.9692	1072.2641	1089.7979	1145.4732	1198.1618	1231.2775	1263.6931	1313.3936	1330.8912	1357.503	1406.1751	1457.7201	1461.8282	1503.0405	1520.604	1758.3083	2957.875	2983.5364	3046.5194	3110.2312	3125.8914	3127.8204	3459.0235
N=C1CCOCO1	[NH][C]1CCOCO1	
InChI=1S/C4H7NO2/c5-4-1-2-6-3-7-4/h5H,1-3H2	InChI=1S/C4H7NO2/c5-4-1-2-6-3-7-4/h5H,1-3H2
