14
gdb 4931	4.87413	1.50965	1.16107	1.4538	60.01	-0.1817	0.0561	0.2379	969.6656	0.107862	-415.889463	-415.881836	-415.880891	-415.921614	27.59	
C	 0.0416904769	 1.4146805288	 0.0616716649	-0.229779
O	-0.0098390018	-0.0054320499	 0.036384441	-0.274706
C	 0.6210882284	-0.6405954418	 1.0441129284	 0.378484
C	 0.6923090307	-1.9961381288	 1.2080698278	-0.242446
N	 1.4423291927	-2.1576263018	 2.3826667331	-0.302738
C	 1.7531133736	-0.9224568616	 2.8185637982	 0.457716
O	 2.4771972695	-0.7613485102	 3.9402331604	-0.424883
N	 1.2836621196	 0.030852029	 2.050008362	-0.448999
H	 1.0734230749	 1.778730484	 0.0102518793	 0.125845
H	-0.5138713427	 1.7480070658	-0.8167602206	 0.122662
H	-0.4212244285	 1.815880734	 0.9696353435	 0.125838
H	 0.3090555595	-2.8257113507	 0.6434612482	 0.127442
H	 1.7034921384	-3.0221271645	 2.8233186164	 0.271838
H	 2.5787575589	 0.1906928676	 4.0613261474	 0.313725
63.4334	160.5921	210.9958	246.7463	315.3835	382.1334	409.0543	457.5002	533.8874	597.0012	627.2039	687.5549	734.3872	765.7397	993.9878	1034.7771	1089.374	1098.8085	1180.7691	1192.9302	1208.9711	1277.5932	1324.9732	1392.7894	1477.7269	1480.4895	1504.2443	1573.7742	1623.9655	1646.7614	3027.388	3090.7808	3135.081	3302.7481	3684.471	3811.7612
COC1=CNC(O)=N1	COc1c[nH]c(O)n1	
InChI=1S/C4H6N2O2/c1-8-3-2-5-4(7)6-3/h2H,1H3,(H2,5,6,7)	InChI=1S/C4H6N2O2/c1-8-3-2-5-4(7)6-3/h2H,1H3,(H2,5,6,7)
