17
gdb 2393	5.19369	2.03559	1.81698	1.6209	64.52	-0.2205	0.0816	0.3021	771.1722	0.147904	-309.686061	-309.678913	-309.677969	-309.717168	26.513	
C	 0.0624739199	 1.5706513351	-0.183535168	-0.405941
C	 0.0189852039	 0.0690729412	-0.0129532652	-0.068563
C	 1.2901375473	-0.7697210103	-0.1220872091	-0.362799
C	 0.59954072	-0.5964035674	 1.1922105767	 0.461304
C	 1.1070760615	-0.0077503614	 2.5052770645	-0.355195
C	 0.3815856274	-1.215267888	 3.1374031908	-0.070681
O	-0.0600406806	-1.6859968215	 1.8436006985	-0.305678
H	 0.9691938028	 1.993776351	 0.2622506462	 0.11319
H	 0.05769782	 1.8498722938	-1.2429726322	 0.119671
H	-0.7979738546	 2.0537396944	 0.2931214102	 0.117755
H	-0.8757006192	-0.4163997615	-0.3957130443	 0.095278
H	 1.215866846	-1.7423651335	-0.5968411157	 0.120118
H	 2.2344387695	-0.2557568339	-0.2803473297	 0.107179
H	 2.1917165649	 0.0056854509	 2.628294169	 0.112331
H	 0.7011599102	 0.9714005176	 2.7682690828	 0.112859
H	 1.0262274004	-1.9475759865	 3.6369120097	 0.104746
H	-0.4641152195	-0.9750226699	 3.7918230259	 0.104423
83.4311	174.5836	199.0739	214.9926	351.3886	413.655	459.5341	561.2726	777.597	801.7928	855.9435	861.68	893.5884	912.7714	969.4455	995.0847	1021.1002	1036.1876	1097.5922	1117.3063	1134.5504	1164.2976	1177.1852	1202.7029	1214.8619	1245.5324	1322.9032	1365.1123	1408.7197	1421.6222	1481.9583	1492.4792	1493.026	1506.2501	1534.4477	3023.8736	3025.3355	3065.3361	3071.4505	3087.6771	3091.9831	3117.8733	3123.8074	3140.7918	3210.3607
CC1CC11CCO1	C[C@H]1C[C@]21CCO2	
InChI=1S/C6H10O/c1-5-4-6(5)2-3-7-6/h5H,2-4H2,1H3	InChI=1S/C6H10O/c1-5-4-6(5)2-3-7-6/h5H,2-4H2,1H3/t5-,6-/m0/s1
