15
gdb 4355	3.90327	1.8076	1.24494	2.4831	70.72	-0.245	-0.0035	0.2415	934.3081	0.120366	-362.734746	-362.727638	-362.726693	-362.766425	26.666	
C	 0.0070964537	 1.4926937902	 0.021509277	-0.464919
C	 0.0360433977	-0.0139453444	 0.0223294381	 0.353024
N	 0.0812257705	-0.607847152	-1.1789514766	-0.3363
C	 0.1075967617	-1.9426004444	-1.2025970688	 0.005375
C	 0.0916010402	-2.7542368417	-0.0764029184	-0.215843
C	 0.0446054911	-2.1300232952	 1.1685666362	 0.425719
O	 0.028392663	-2.9071617696	 2.2784803793	-0.431201
C	 0.0164239861	-0.7359885508	 1.2156364831	-0.32628
H	 0.8938034104	 1.8874667513	-0.4844327	 0.141135
H	-0.8634342706	 1.8536565066	-0.5352048827	 0.141143
H	-0.0299961446	 1.9022041848	 1.034029863	 0.11249
H	 0.1441021993	-2.3994430277	-2.1892954763	 0.106963
H	 0.1144262406	-3.8345270538	-0.1484627539	 0.105942
H	-0.0044024339	-2.3443343736	 3.0599751608	 0.300517
H	-0.0203808954	-0.2179641597	 2.1701840692	 0.082235
53.4721	198.9678	231.9869	302.9267	420.3977	450.6486	460.4247	529.0346	556.8837	609.4028	754.3246	778.537	855.2805	858.2813	959.5869	989.2301	1004.0122	1023.333	1059.332	1112.078	1197.5772	1203.3151	1319.6895	1322.4726	1362.0425	1409.1401	1451.0565	1474.6	1493.8748	1520.9637	1634.4326	1637.9337	3041.6159	3103.3832	3123.6509	3149.5346	3159.0816	3211.1124	3810.7357
CC1=NC=CC(O)=C1	Cc1nccc(O)c1	
InChI=1S/C6H7NO/c1-5-4-6(8)2-3-7-5/h2-4H,1H3,(H,7,8)	InChI=1S/C6H7NO/c1-5-4-6(8)2-3-7-5/h2-4H,1H3,(H,7,8)
