16
gdb 3555	5.05814	2.9732	2.64265	0.7476	63.57	-0.2047	0.0933	0.2979	600.1997	0.138147	-288.563768	-288.558038	-288.557094	-288.592862	23.084	
C	-0.042640099	 1.5280733246	 0.0236320828	-0.328411
N	 0.0947917333	 0.0791293458	-0.0163435063	-0.074528
C	 0.7865482655	-0.5429644848	-1.1385329704	-0.011783
C	 2.3121287473	-0.5948615499	-0.840069034	-0.086688
C	 2.4926209249	 0.0193372627	 0.5456059014	-0.245738
C	 1.0918795223	-0.5928597866	 0.8668622403	-0.018669
C	 1.3481872889	-1.6336207507	-0.2919353259	-0.102091
H	 0.8807942626	 2.0891967619	-0.1889132813	 0.100665
H	-0.7944149213	 1.8305887022	-0.7134517743	 0.118353
H	-0.4080264307	 1.8259736274	 1.0123994409	 0.116785
H	 0.3823175854	-0.5763309876	-2.1432253667	 0.091114
H	 3.0468728841	-0.7202292506	-1.6254474312	 0.082593
H	 3.2697807419	-0.5063308862	 1.1067084045	 0.101508
H	 2.6318815087	 1.1000624861	 0.6552624668	 0.089582
H	 0.780162425	-0.7932278934	 1.8912087809	 0.073101
H	 1.2967435612	-2.7101910211	-0.3538644375	 0.094207
178.1133	242.3435	323.928	482.7179	587.7944	665.538	745.8691	782.861	791.0868	804.1323	867.6069	889.8139	945.7855	969.2308	1005.2863	1017.2602	1028.8789	1069.2364	1073.9371	1126.2204	1144.9741	1163.2435	1172.3173	1199.9852	1217.588	1243.7013	1266.7987	1320.8633	1362.5259	1443.028	1479.5057	1496.4405	1517.5814	2980.6322	3043.9845	3060.8075	3095.4979	3100.3528	3121.9932	3184.1998	3196.0176	3229.9263
CN1C2C3CC1C23	CN1[C@H]2[C@H]3C[C@@H]1[C@@H]23	
InChI=1S/C6H9N/c1-7-4-2-3-5(4)6(3)7/h3-6H,2H2,1H3	InChI=1S/C6H9N/c1-7-4-2-3-5(4)6(3)7/h3-6H,2H2,1H3/t3-,4+,5-,6-/m0/s1
