11
gdb 45	16.58914	7.18798	6.11415	1.1353	39.02	-0.2304	0.0968	0.3271	270.5508	0.097671	-173.147782	-173.143343	-173.142399	-173.174073	15.298	
C	-0.0527554057	 1.4741957398	 0.0099910766	-0.30548
N	 0.0194051596	 0.0218994726	 0.0633486576	-0.052394
C	 1.3251104806	-0.5644684959	-0.2142072495	-0.212112
C	 0.7805175872	-0.5405799284	 1.1724275978	-0.212112
H	 0.8678420184	 1.9717607593	 0.3629728511	 0.093306
H	-0.2384515466	 1.7909500529	-1.0214286624	 0.122534
H	-0.8868344802	 1.8193895922	 0.6295039812	 0.122534
H	 1.3199290938	-1.4818678205	-0.7960203785	 0.116107
H	 2.1520281957	 0.1102020383	-0.4328524846	 0.105754
H	 1.2456356973	 0.1499609842	 1.8749924498	 0.105754
H	 0.3701335798	-1.4402044744	 1.6223336511	 0.116107
246.5615	371.759	380.0052	751.773	827.0531	881.406	1018.3241	1028.2816	1105.6002	1114.9662	1130.348	1154.6494	1202.627	1222.9449	1326.5286	1449.6306	1487.682	1494.1151	1495.8857	1521.778	2949.4487	3063.9054	3089.2791	3094.1828	3101.8796	3173.8294	3188.0734
CN1CC1	CN1CC1	
InChI=1S/C3H7N/c1-4-2-3-4/h2-3H2,1H3	InChI=1S/C3H7N/c1-4-2-3-4/h2-3H2,1H3
