14
gdb 792	6.12319	1.43744	1.3165	0.4796	62.57	-0.2492	0.0065	0.2556	906.4382	0.110179	-324.50612	-324.49791	-324.496966	-324.539	28.728	
C	 0.053290151	 1.5176001202	-0.0211984858	-0.482835
C	 0.0558312286	 0.017688093	-0.0839586662	 0.372606
C	 0.0541299051	-0.7766248623	 1.2103851877	-0.407693
C	 1.2075405587	-0.4920861441	 2.0603206601	 0.310075
C	 2.1587096864	-0.2442184886	 2.7517262839	-0.465822
N	 0.0320818813	-0.6905990184	-1.1462914477	-0.162622
O	-0.0141801556	 0.0896190338	-2.3105219619	-0.395883
H	 0.4386177785	 1.9458599038	-0.9464285371	 0.154673
H	-0.9690198577	 1.8897430998	 0.1219247335	 0.138434
H	 0.6527555162	 1.8611385654	 0.825534081	 0.142507
H	-0.8659164418	-0.5493098482	 1.7683864489	 0.138224
H	 0.0189581008	-1.8405511738	 0.956469678	 0.150903
H	 3.0000790854	-0.0371768101	 3.3654710897	 0.20009
H	 0.0245746031	-0.5800651805	-3.001334934	 0.307343
62.3673	63.9627	132.9832	300.5877	311.0281	342.3292	350.037	388.9616	458.7602	530.8342	618.2392	644.0584	671.4548	816.7058	905.5745	945.8996	999.2596	1048.1734	1058.1574	1212.7565	1265.4866	1320.6585	1398.5499	1401.567	1455.1629	1480.2005	1488.0391	1737.8132	2239.042	3006.2822	3036.3487	3082.9964	3104.8516	3157.3856	3505.1971	3821.4763
CC(CC#C)=NO	CC(=NO)CC#C	
InChI=1S/C5H7NO/c1-3-4-5(2)6-7/h1,7H,4H2,2H3	InChI=1S/C5H7NO/c1-3-4-5(2)6-7/h1,7H,4H2,2H3
