14
gdb 677	5.709	4.53256	3.23119	1.8302	52.03	-0.2561	0.0972	0.3533	469.3823	0.12194	-270.430832	-270.425853	-270.424909	-270.458919	19.278	
C	 0.1697479622	 1.3980514346	 0.396409689	-0.208572
C	 1.394476586	 2.0084016402	-0.3308274095	-0.233099
C	 2.1349036096	 0.7996562202	-0.8679874582	 0.062072
O	 2.2937570558	-0.2515938876	 0.0970546152	-0.262113
C	 1.2343665126	-0.3601873467	-0.8660469603	 0.062072
C	-0.1192787196	 0.0587668731	-0.3275665617	-0.2331
H	 0.4314111037	 1.1966289958	 1.4370280062	 0.120497
H	-0.6931213575	 2.068011201	 0.3974284603	 0.096978
H	 1.0890447012	 2.6376942886	-1.1764541499	 0.100612
H	 2.0097036046	 2.6258052012	 0.3310608542	 0.108115
H	 2.954092929	 0.909976528	-1.5744452972	 0.088906
H	 1.3293225887	-1.1826393435	-1.570944633	 0.088906
H	-0.5639125316	-0.6888729809	 0.3366042464	 0.108115
H	-0.8059971146	 0.196982896	-1.1723722613	 0.100612
212.8764	327.8273	404.7624	654.7423	655.7724	807.0636	821.953	861.9904	887.065	896.6051	938.3889	955.5812	1031.7507	1034.2316	1088.5283	1114.5778	1178.4394	1203.1751	1238.6213	1273.4971	1311.4734	1325.0129	1326.7197	1362.43	1439.0892	1478.3174	1482.3491	1498.7717	3031.5683	3033.1454	3072.2525	3082.2105	3084.2624	3121.1908	3138.1345	3151.1386
C1CC2OC2C1	C1C[C@H]2O[C@H]2C1	
InChI=1S/C5H8O/c1-2-4-5(3-1)6-4/h4-5H,1-3H2	InChI=1S/C5H8O/c1-2-4-5(3-1)6-4/h4-5H,1-3H2/t4-,5+
