12
gdb 2876	6.59578	2.08919	1.79796	1.4018	56.1	-0.2575	0.0113	0.2688	682.5869	0.090574	-323.348544	-323.342352	-323.341408	-323.379032	22.097	
C	-0.1583133565	-1.2504359454	-0.1783442713	-0.459648
C	-0.0303923896	-0.0608384586	-0.0703506262	 0.334152
C	 0.0800233393	 1.3805462294	 0.0798541951	-0.071236
C	-0.4856184329	 1.9413747766	 1.4291744253	-0.194866
N	 0.6614677574	 2.5857328057	 2.0818259094	-0.25591
C	 1.6423039197	 2.4318965893	 1.2981883754	 0.128481
O	 1.4830962568	 1.7818848079	 0.1186905849	-0.220752
H	-0.2636532529	-2.3026493389	-0.2795075148	 0.209137
H	-0.3644560671	 1.8809073328	-0.7860167087	 0.124861
H	-1.2834268534	 2.6707371133	 1.2612062382	 0.125084
H	-0.8842284019	 1.1445232284	 2.0624095909	 0.133667
H	 2.652347891	 2.7844723396	 1.4752089418	 0.14703
60.3992	172.2593	240.8182	472.2673	494.9419	543.1305	622.0433	676.8121	728.9357	824.3832	879.1647	958.2998	963.7786	986.1473	1039.2653	1064.9197	1119.1635	1208.4706	1293.1195	1314.3226	1335.7254	1367.6739	1497.5876	1714.7944	2241.5786	3053.9264	3061.5061	3101.5247	3218.3448	3502.1747
C#CC1CN=CO1	C#C[C@H]1CN=CO1	
InChI=1S/C5H5NO/c1-2-5-3-6-4-7-5/h1,4-5H,3H2	InChI=1S/C5H5NO/c1-2-5-3-6-4-7-5/h1,4-5H,3H2/t5-/m0/s1
