14
gdb 2591	3.16324	2.87913	1.80866	3.5623	58.43	-0.275	0.0173	0.2923	722.2829	0.112319	-324.562156	-324.554887	-324.553943	-324.593375	25.826	
C	 0.1526743596	 1.3027644476	 0.1825771947	-0.261031
O	-0.1981012582	-0.0247225693	-0.1911931898	-0.266568
C	 0.5871946402	-0.5526813598	-1.2080127639	 0.301823
C	 1.9439135222	-1.1413146201	-0.8513138391	-0.31366
C	 0.7826413776	-2.0459660341	-1.1674404004	-0.308418
C	 0.4408870834	 0.094599842	-2.4977135327	 0.241194
N	 0.3206663287	 0.633469411	-3.5141560565	-0.35142
H	 1.1920934719	 1.3575294841	 0.5326893442	 0.115313
H	 0.020536308	 2.0018460505	-0.6528792851	 0.13785
H	-0.5196706153	 1.5817245511	 0.9955215334	 0.13847
H	 2.7495699274	-1.0520765595	-1.5701471997	 0.141661
H	 2.2316939483	-1.0382439978	 0.1885399085	 0.137012
H	 0.2878730761	-2.5427659853	-0.3414214709	 0.144445
H	 0.7788507701	-2.5839561305	-2.1074048626	 0.143329
105.5186	163.3111	195.9673	216.316	262.8566	369.8631	448.164	576.395	605.7874	667.9738	776.0083	883.9565	910.1786	961.4953	974.698	1058.7025	1090.3714	1100.2322	1184.0818	1193.9494	1218.0766	1280.7876	1304.6813	1451.7279	1475.6153	1487.4996	1488.8368	1507.2375	2347.0884	3005.5205	3067.4582	3137.053	3146.1457	3151.9581	3236.3697	3250.6035
COC1(CC1)C#N	COC1(CC1)C#N	
InChI=1S/C5H7NO/c1-7-5(4-6)2-3-5/h2-3H2,1H3	InChI=1S/C5H7NO/c1-7-5(4-6)2-3-5/h2-3H2,1H3
