14
gdb 2918	7.03815	2.06968	1.63181	2.7356	64.55	-0.2322	-0.0251	0.2071	749.1962	0.113993	-324.595031	-324.588341	-324.587397	-324.626882	23.343	
C	-0.0425053982	 1.4394127672	 0.0714969875	-0.334435
N	-0.0109788393	-0.0093324575	 0.1638413803	-0.332669
C	-1.0853665808	-0.6667532161	 0.0751557545	 0.438544
O	-2.3467783184	-0.1304483453	-0.108926756	-0.256924
C	-3.3099633952	-1.1828388316	-0.1602617746	-0.131289
C	-2.5141388369	-2.4446710084	 0.0123266012	-0.100187
C	-1.2273851627	-2.1257314323	 0.1472638852	-0.155554
H	 0.6016826323	 1.7589372919	-0.75642466	 0.123723
H	-1.0409551481	 1.865717985	-0.0761160636	 0.122289
H	 0.3895840508	 1.8653851018	 0.9849581827	 0.123743
H	-4.0520897622	-1.0337282242	 0.636372355	 0.126934
H	-3.8411225169	-1.1411031017	-1.1213770248	 0.126933
H	-2.9592870514	-3.4303732883	 0.0190994164	 0.121392
H	-0.378760273	-2.7778882604	 0.2889314761	 0.1275
21.4725	144.0439	236.0886	248.4993	401.4705	500.2649	669.6589	688.861	798.7056	798.9362	870.7514	950.038	974.0734	1024.2471	1031.3071	1073.5146	1118.4138	1130.1032	1145.6913	1199.0848	1208.5088	1363.8264	1375.8999	1437.366	1494.109	1494.7741	1501.6454	1661.8885	1780.9123	3005.0335	3013.264	3031.6935	3067.9019	3085.8893	3227.742	3261.5099
CN=C1OCC=C1	CN=C1OCC=C1	
InChI=1S/C5H7NO/c1-6-5-3-2-4-7-5/h2-3H,4H2,1H3	InChI=1S/C5H7NO/c1-6-5-3-2-4-7-5/h2-3H,4H2,1H3
