14
gdb 935	5.72552	2.6336	1.82416	1.7418	65.77	-0.2473	-0.0197	0.2276	683.4613	0.115841	-287.508781	-287.502724	-287.50178	-287.539114	22.248	
C	 0.0019281665	 1.5057549833	-0.0023280484	-0.465438
C	 0.0192649685	-0.000721033	 0.0246619748	 0.335693
N	 0.1437859304	-0.6151826876	-1.161314029	-0.308109
C	 0.1632078845	-1.9481461309	-1.1793513666	-0.000711
C	 0.0619304062	-2.7426185808	-0.0400779512	-0.126591
C	-0.0670417369	-2.1049923138	 1.1881890872	-0.072867
C	-0.0886648203	-0.715007818	 1.2209630691	-0.160617
H	 0.9240632799	 1.8889715262	-0.4508410895	 0.139928
H	-0.8258415293	 1.8657805326	-0.6216365258	 0.139925
H	-0.1015176862	 1.9288548867	 0.9998582049	 0.115521
H	 0.2655223403	-2.4090386205	-2.159744261	 0.104908
H	 0.084016687	-3.8236042586	-0.1192358305	 0.098711
H	-0.1495166669	-2.6782569703	 2.1060776012	 0.104917
H	-0.1880014537	-0.1840537953	 2.1616578448	 0.094729
49.6532	201.2775	353.4945	417.502	485.9901	550.9536	637.1176	758.714	777.8093	817.5442	909.6401	981.4898	992.2746	1009.0236	1017.8902	1062.2251	1072.7746	1126.3511	1176.297	1257.3886	1297.008	1328.4779	1409.5632	1456.9089	1475.8222	1492.7519	1509.5336	1614.4203	1632.8018	3040.8831	3101.3621	3124.2838	3145.8345	3173.2975	3189.0641	3201.076
CC1=NC=CC=C1	Cc1ncccc1	
InChI=1S/C6H7N/c1-6-4-2-3-5-7-6/h2-5H,1H3	InChI=1S/C6H7N/c1-6-4-2-3-5-7-6/h2-5H,1H3
