11
gdb 4703	6.89695	1.34935	1.12856	4.0721	61.29	-0.2351	-0.0276	0.2075	938.1631	0.0747	-393.640069	-393.633629	-393.632685	-393.670711	23.63	
O	 0.0781893069	 1.3017961204	 0.1849928937	-0.413531
C	 0.0686794902	-0.0235093311	 0.0294555792	 0.469595
N	 0.0800700026	-0.6810800946	-1.1083031758	-0.344272
C	 0.0628071206	-2.0030400509	-0.7487249958	-0.158239
C	 0.0406887175	-2.1409492935	 0.6207164746	 0.202264
N	 0.0450212177	-0.8306563497	 1.1117051641	-0.376526
C	 0.0178202654	-3.2722062373	 1.4560863703	 0.204951
N	-0.0011053409	-4.1983290995	 2.1541357436	-0.343535
H	 0.0950601988	 1.6865594237	-0.7013346048	 0.324635
H	 0.0669044245	-2.7930092842	-1.483039988	 0.143017
H	 0.0329416465	-0.5462144033	 2.0772489588	 0.29164
140.8731	155.2502	310.4121	413.6624	428.6263	495.1008	517.7537	552.3751	580.9716	658.2062	740.6183	741.8891	873.4412	1010.32	1049.2971	1166.5967	1206.4495	1255.8835	1310.8023	1376.3743	1512.6152	1591.0417	1633.7795	2334.5156	3267.9608	3667.909	3796.974
OC1=NC=C(N1)C#N	Oc1ncc([nH]1)C#N	
InChI=1S/C4H3N3O/c5-1-3-2-6-4(8)7-3/h2H,(H2,6,7,8)	InChI=1S/C4H3N3O/c5-1-3-2-6-4(8)7-3/h2H,(H2,6,7,8)
