15
gdb 3031	10.98443	1.10748	1.07652	1.7247	63.27	-0.2609	0.0557	0.3165	1061.672	0.123299	-308.461475	-308.453901	-308.452956	-308.49365	26.76	
C	-0.036135884	-1.176292043	-0.0867718316	-0.438241
C	 0.0036748185	 0.0246228186	-0.1184339088	 0.29032
C	 0.0871472399	 1.4788388867	-0.1446453773	-0.343283
C	 1.4682001284	 2.0087167092	 0.3001109457	-0.212037
C	 1.5171246618	 3.5157338072	 0.2725950848	 0.091574
C	 2.7013617246	 4.257994469	-0.1745472083	-0.180489
O	 1.5592826127	 4.1247989484	-1.0225456546	-0.236315
H	-0.0861846394	-2.2365638648	-0.0652403961	 0.194174
H	-0.1194760267	 1.8472216292	-1.1566101185	 0.150094
H	-0.6929765732	 1.9025410748	 0.5017112447	 0.128696
H	 1.6880666972	 1.6534316201	 1.3135101367	 0.114486
H	 2.2405377853	 1.6045681103	-0.3617054468	 0.117434
H	 0.8402024828	 4.0184042834	 0.9673570689	 0.092199
H	 2.8892453119	 5.2616941894	 0.2042493778	 0.115967
H	 3.58688343	 3.7096865814	-0.4937879367	 0.115421
69.8301	89.9531	129.6039	234.7574	341.5856	381.0751	461.8853	514.6387	617.8999	639.5356	760.792	807.818	872.0314	931.0802	972.9206	1004.5384	1034.4645	1098.9013	1120.1491	1159.3837	1171.0614	1219.1145	1276.3185	1296.913	1313.1425	1368.4071	1446.9172	1470.585	1484.5253	1530.3561	2239.9469	3020.3088	3043.766	3058.8998	3078.7784	3083.5187	3100.3452	3168.7516	3507.5219
C#CCCC1CO1	C#CCC[C@H]1CO1	
InChI=1S/C6H8O/c1-2-3-4-6-5-7-6/h1,6H,3-5H2	InChI=1S/C6H8O/c1-2-3-4-6-5-7-6/h1,6H,3-5H2/t6-/m0/s1
