13
gdb 3314	6.45407	2.01535	1.8093	2.9334	53.8	-0.2513	-0.0385	0.2128	693.1507	0.100749	-344.406447	-344.400275	-344.399331	-344.436909	22.272	
O	-0.5629454489	 0.7473906329	 0.7979119054	-0.240793
C	 0.2472094898	 0.705603139	-0.0916740131	 0.142683
C	 1.4616343886	 1.6090373568	-0.1459027933	 0.041903
O	 2.5618425541	 1.0797671586	-0.92563547	-0.298729
C	 2.6052015553	 2.2790184217	-1.7116186788	 0.112584
C	 1.3543567009	 2.4400849245	-2.50719422	-0.299096
C	 1.3754348374	 2.8518461629	-1.0444403905	-0.141351
H	 0.1459568053	 0.0110612986	-0.954014335	 0.089471
H	 1.7813520345	 1.8522319089	 0.8731837159	 0.111951
H	 3.5774155076	 2.6945102974	-1.9467036183	 0.114292
H	 1.3460169655	 3.2834660284	-3.1908314242	 0.125433
H	 0.8129164972	 1.5664829074	-2.8547071919	 0.125268
H	 1.1448478528	 3.8506807929	-0.7030686061	 0.116383
66.3334	181.8703	243.9107	429.7484	465.8245	481.7037	750.1636	767.9338	797.5064	919.6454	955.166	964.6621	1001.1482	1026.4331	1043.2966	1050.157	1076.8848	1088.6461	1117.1767	1194.1597	1239.4458	1270.7393	1309.2996	1357.4223	1409.3343	1475.5573	1828.9721	2897.4927	3057.8405	3128.4308	3191.0361	3213.9666	3221.9489
O=CC1OC2CC12	O=C[C@H]1O[C@H]2C[C@@H]12	
InChI=1S/C5H6O2/c6-2-5-3-1-4(3)7-5/h2-5H,1H2	InChI=1S/C5H6O2/c6-2-5-3-1-4(3)7-5/h2-5H,1H2/t3-,4+,5-/m1/s1
