14
gdb 2169	3.81949	3.11023	1.81928	2.6161	54.34	-0.2693	0.0189	0.2882	673.3919	0.115102	-361.73193	-361.725633	-361.724689	-361.762049	23.532	
O	 0.3780639581	 1.1031400646	 0.6020748102	-0.439627
C	-0.0146617639	-0.112434764	 0.0300137107	 0.075398
C	-1.5086479865	-0.2194846327	-0.2959981535	-0.25387
C	-1.4924585512	-1.2522335595	-1.4292874457	-0.095304
O	-0.2387529298	-1.0421414358	-2.1260771999	-0.233466
C	 0.6062385063	-0.3366094323	-1.3373242439	 0.397875
N	 1.7367226136	 0.1267276221	-1.6538939584	-0.567698
H	 1.2190377811	 1.3284679177	 0.1762219287	 0.297323
H	 0.2777463659	-0.9615003663	 0.6736187311	 0.09343
H	-2.1263946476	-0.5278896655	 0.5488231195	 0.118173
H	-1.8600506019	 0.752431642	-0.6554106919	 0.128019
H	-1.5109279067	-2.281522315	-1.0524800557	 0.12035
H	-2.2964903372	-1.1308222608	-2.1573451733	 0.129202
H	 1.9877185197	-0.0833453747	-2.6196248878	 0.230195
123.0487	199.3351	276.7598	390.3812	401.6862	483.0364	577.3776	659.087	696.4943	817.3884	868.6585	881.1933	940.8567	991.3812	1014.6692	1096.4934	1106.1702	1164.1813	1194.2978	1232.1397	1265.9021	1287.9392	1309.8487	1374.9836	1419.8045	1436.0827	1493.5605	1523.6923	1783.2758	2943.5714	3041.4437	3068.6293	3114.8534	3131.8068	3496.2203	3717.5617
OC1CCOC1=N	O[C@H]1CCO[C]1[NH]	
InChI=1S/C4H7NO2/c5-4-3(6)1-2-7-4/h3,5-6H,1-2H2	InChI=1S/C4H7NO2/c5-4-3(6)1-2-7-4/h3,5-6H,1-2H2/t3-/m0/s1
