15
gdb 4558	4.01304	1.79323	1.2518	4.0476	66.39	-0.1685	0.0514	0.2199	933.3599	0.119203	-395.99803	-395.989864	-395.98892	-396.030976	29.173	
C	 0.0022806667	 1.4376842908	 0.0816626963	-0.340027
N	-0.0144712216	-0.0038006475	 0.0908778055	-0.082459
C	-1.1530204594	-0.8370171508	 0.0624742337	-0.217739
C	-0.7029678401	-2.0992349807	 0.0542858209	 0.331368
N	-1.2886624765	-3.3527104931	 0.147249835	-0.591274
O	 0.6759149341	-2.1011335818	 0.0508358313	-0.233215
C	 1.1133198859	-0.7818077801	 0.0546186475	 0.46239
N	 2.3205776248	-0.3862815643	 0.0261745363	-0.621175
H	 1.045941402	 1.7507726865	 0.1279804168	 0.178295
H	-0.4507078379	 1.8390543951	-0.8334938913	 0.125017
H	-0.5347907376	 1.8442690379	 0.9465370417	 0.126527
H	-2.1527793993	-0.441310771	 0.0641065153	 0.129531
H	-2.2917961735	-3.3162163831	 0.023167151	 0.254522
H	-0.8817820719	-4.0170828719	-0.5025547781	 0.257467
H	 2.9603362043	-1.1745042159	 0.0201806681	 0.220773
54.5022	106.3734	174.7515	197.5619	284.0883	289.1499	337.2019	532.552	608.1454	615.71	640.0319	679.3419	684.3862	726.4264	757.7126	853.8011	978.4169	1018.7388	1064.6288	1119.9758	1158.4233	1187.7786	1233.7021	1334.0605	1377.4959	1435.5108	1473.3887	1493.2525	1515.8856	1630.8715	1739.6618	1793.5582	3015.2217	3065.2346	3151.8534	3294.655	3518.076	3554.6144	3627.4279
CN1C=C(N)OC1=N	CN1C=C(N)O[C@H]1[NH]	
InChI=1S/C4H7N3O/c1-7-2-3(5)8-4(7)6/h2,6H,5H2,1H3	InChI=1S/C4H8N3O/c1-7-2-3(5)8-4(7)6/h2,4,6H,5H2,1H3/t4-/m0/s1
