13
gdb 121	23.52902	2.22059	2.10822	0.7752	51.47	-0.2586	0.0583	0.3169	593.0141	0.112736	-195.186228	-195.179881	-195.178937	-195.215412	22.023	
C	-0.0264550847	 1.5547974292	-0.0019863372	-0.382
C	 0.0007100359	 0.0253919857	 0.0008034259	-0.156724
C	 0.7366063721	-0.544273311	 1.2313392999	-0.329533
C	 0.7736288856	-2.0012996103	 1.253488737	 0.290895
C	 0.7896996929	-3.2033496627	 1.2454474628	-0.440404
H	 0.9873736295	 1.9704941941	-0.0121371886	 0.11627
H	-0.5521936355	 1.9387048557	-0.8812639848	 0.11614
H	-0.534755693	 1.945096608	 0.8868674469	 0.11627
H	-1.0203653698	-0.371409926	-0.0146882679	 0.110967
H	 0.4899835484	-0.3462005977	-0.9062909758	 0.110966
H	 1.7621625618	-0.1520019753	 1.2550041181	 0.127408
H	 0.2525366418	-0.1770882925	 2.1462272311	 0.127379
H	 0.8115611649	-4.2645394273	 1.2504031827	 0.192368
97.98	158.4769	242.0495	342.6571	350.8039	506.522	613.8699	632.6693	742.3623	872.4258	876.9748	971.2049	1048.0843	1109.2162	1122.9286	1257.1141	1301.1672	1320.1516	1378.5127	1413.0019	1472.4857	1491.7325	1499.1123	1508.6945	2238.2918	3012.2868	3029.9783	3039.8096	3043.125	3074.8706	3101.0677	3106.6953	3509.2513
CCCC#C	CCCC#C	
InChI=1S/C5H8/c1-3-5-4-2/h1H,4-5H2,2H3	InChI=1S/C5H8/c1-3-5-4-2/h1H,4-5H2,2H3
