17
gdb 2715	14.07064	0.7666	0.75362	3.082	62.2	-0.2496	-0.0205	0.229	1432.3632	0.146052	-346.860404	-346.851587	-346.850643	-346.894764	29.247	
O	-0.0768966565	 1.4781606433	-0.1108986214	-0.420059
C	 0.0412395336	 0.0662060431	-0.038102073	-0.074801
C	-1.3649604936	-0.5155600028	 0.0328255986	-0.161493
C	-1.3731913033	-2.0448819921	 0.1068458254	-0.198224
C	-2.7952086029	-2.6262735696	 0.1943531043	-0.270805
C	-2.7894463372	-4.1366560215	 0.1534028517	 0.159609
O	-3.2762660631	-4.856413286	 0.9864290774	-0.236565
H	 0.8075126386	 1.8539160954	-0.1441776861	 0.286926
H	 0.5663302735	-0.337331218	-0.9198659647	 0.084398
H	 0.6162928965	-0.241957546	 0.8506919735	 0.086544
H	-1.8728204277	-0.0920947392	 0.907472017	 0.111653
H	-1.9257594468	-0.1780733661	-0.8474330238	 0.10788
H	-0.8654150875	-2.4599637154	-0.7744832718	 0.102567
H	-0.7956015873	-2.3775380163	 0.9789579514	 0.112129
H	-3.308631789	-2.3013888088	 1.1039517936	 0.123236
H	-3.3785587578	-2.2752221997	-0.6698084565	 0.119249
H	-2.2732591495	-4.5647879204	-0.7395785555	 0.067757
52.9882	66.4995	110.7762	131.2549	148.5019	264.4372	290.4634	332.2854	476.6981	523.5584	744.8765	786.8069	851.201	958.2154	992.9867	1007.9486	1058.3805	1071.884	1105.586	1160.5191	1205.2999	1223.7582	1271.7271	1279.1554	1317.116	1327.1345	1336.8868	1392.6563	1431.0552	1463.9804	1465.0944	1490.394	1505.125	1529.7911	1837.6009	2843.1763	2957.2566	2982.6181	3008.1816	3014.7752	3033.715	3046.4916	3079.0066	3099.789	3831.7649
OCCCCC=O	OCCCCC=O	
InChI=1S/C5H10O2/c6-4-2-1-3-5-7/h4,7H,1-3,5H2	InChI=1S/C5H10O2/c6-4-2-1-3-5-7/h4,7H,1-3,5H2
