11
gdb 3704	7.32521	2.2811	1.75852	2.6514	49.8	-0.2531	-0.0087	0.2444	667.7146	0.078292	-376.570141	-376.564178	-376.563234	-376.599917	21.323	
C	-0.0052830712	 1.4563403939	 0.1039689129	-0.490495
C	-0.0074126124	-0.0169092701	-0.0412722372	 0.428549
N	-0.0899663655	-0.673484442	-1.1372837753	-0.173871
O	-0.0488474981	-2.0390287116	-0.7319908898	-0.241953
C	 0.0593984219	-2.087554641	 0.6272911953	 0.508859
N	 0.1269075517	-3.073410038	 1.3964053561	-0.576063
O	 0.0860978093	-0.786140125	 1.0727838603	-0.202422
H	 0.9202454297	 1.7880090779	 0.584193793	 0.165253
H	-0.0908704713	 1.9169785713	-0.8803577925	 0.170354
H	-0.8422071317	 1.7758997869	 0.7321190328	 0.165213
H	 0.0912158175	-3.9455977922	 0.8749703245	 0.246575
159.3919	170.7105	292.099	307.2716	491.8434	633.1271	643.624	731.237	772.9635	784.3961	902.629	927.8557	983.0748	1032.5936	1066.1362	1071.0376	1255.1541	1362.745	1428.4321	1469.7512	1474.8822	1708.1371	1816.5437	3053.9544	3116.0805	3163.0691	3547.3493
CC1=NOC(=N)O1	CC1=NO[C@H]([NH])O1	
InChI=1S/C3H4N2O2/c1-2-5-7-3(4)6-2/h4H,1H3	InChI=1S/C3H5N2O2/c1-2-5-7-3(4)6-2/h3-4H,1H3/t3-/m1/s1
