15
gdb 1704	3.81244	2.43319	1.96182	2.904	61.14	-0.2664	0.027	0.2934	710.5963	0.126261	-304.69768	-304.690635	-304.68969	-304.728521	25.984	
N	 0.1658283242	 1.5493596066	-0.2450987907	-0.545499
C	-0.0339422866	 0.1303817457	 0.0253478339	 0.154979
C	 0.1291696359	-0.2944012373	 1.5214247099	-0.239188
C	-1.1839787797	-1.1123391204	 1.411235877	-0.212378
C	-1.5258513674	-0.3290745278	 0.1169627478	-0.239188
C	 0.7463137128	-0.7384029975	-0.872669085	 0.231538
N	 1.37478072	-1.3858595492	-1.5972456449	-0.345949
H	 1.1523723095	 1.7827449722	-0.1569532368	 0.240215
H	-0.0870567635	 1.7567779195	-1.2087036147	 0.240215
H	 1.0448815777	-0.8214576138	 1.7930617697	 0.118007
H	 0.0146575366	 0.5935165783	 2.1470109061	 0.122282
H	-0.9943482403	-2.1698939861	 1.2138825641	 0.123789
H	-1.8888356262	-1.0325282417	 2.2398701522	 0.11089
H	-2.1459674346	 0.548252605	 0.3134873126	 0.122282
H	-1.9296820784	-0.8837745934	-0.7311717513	 0.118006
107.5603	182.7569	200.0601	229.9926	372.2597	391.4722	520.0865	584.9766	639.4839	689.5649	791.4899	851.4395	905.5734	905.7551	941.6889	956.5653	980.6205	1066.3744	1178.4931	1200.6672	1205.1082	1257.7448	1274.3758	1275.7421	1296.759	1307.4073	1470.8276	1484.7499	1504.2167	1653.6666	2335.3174	3074.6405	3074.993	3079.119	3122.4336	3137.8286	3144.7791	3473.9128	3551.5119
NC1(CCC1)C#N	NC1(CCC1)C#N	
InChI=1S/C5H8N2/c6-4-5(7)2-1-3-5/h1-3,7H2	InChI=1S/C5H8N2/c6-4-5(7)2-1-3-5/h1-3,7H2
