13
gdb 3781	7.88933	1.994	1.61143	5.6746	56.06	-0.2145	0.015	0.2295	730.9188	0.103946	-336.802871	-336.796432	-336.795488	-336.833246	23.012	
C	-0.0425644465	 1.4321804763	-0.0299693011	-0.328457
N	-0.1136899562	-0.0209949336	 0.0444083265	-0.390745
C	 0.6027305559	-0.6309010593	 1.0565849089	 0.404029
C	 1.2791114084	-0.1464527905	 2.1598539902	-0.140312
N	 1.7531839481	-1.2056151267	 2.8787504073	-0.1815
N	 1.4262387948	-2.3145605275	 2.2984047444	-0.125178
N	 0.7168992859	-1.9768068179	 1.1826377644	-0.268694
H	 0.9805003189	 1.8138755444	-0.1632382025	 0.124635
H	-0.6586187129	 1.7736473106	-0.8643107939	 0.132543
H	-0.4510711797	 1.8611824118	 0.8896700451	 0.147778
H	-0.0087429812	-0.469094779	-0.8555129087	 0.242229
H	 1.4484521632	 0.8715918988	 2.4662917507	 0.112692
H	 0.3270391511	-2.7024378174	 0.6037469588	 0.270979
97.5199	183.9555	218.2338	313.9547	428.302	497.2246	556.492	697.3861	715.3268	734.4101	789.9916	986.7829	1022.5875	1047.0162	1096.5358	1142.2484	1150.7336	1170.1761	1255.9178	1353.7142	1383.709	1423.5708	1462.5274	1486.6333	1509.6958	1529.4694	1642.4389	2995.6631	3084.7828	3130.5503	3281.8204	3575.468	3662.3626
CNC1=CN=NN1	CNc1cnn[nH]1	
InChI=1S/C3H6N4/c1-4-3-2-5-7-6-3/h2H,1H3,(H2,4,5,6,7)	InChI=1S/C3H6N4/c1-4-3-2-5-7-6-3/h2H,1H3,(H2,4,5,6,7)
