9
gdb 110	24.42532	2.5579	2.40769	2.0711	41.41	-0.2583	-0.0337	0.2245	483.1343	0.065029	-229.918003	-229.912379	-229.911435	-229.946855	18.303	
O	 0.0228818547	-0.1283904808	 0.036751792	-0.226228
C	 0.0390154542	 1.0488674256	-0.1947328914	 0.16764
C	 1.3081173195	 1.9047228436	-0.1287793797	-0.409231
C	 1.3292414693	 2.9449717634	-1.1449371244	 0.278657
C	 1.2996790495	 3.7853845093	-2.0029445452	-0.435145
H	-0.8806832787	 1.6135060203	-0.4594197024	 0.098507
H	 1.3302289641	 2.3575358925	 0.8742664013	 0.159964
H	 2.1745257529	 1.2390946284	-0.1955763787	 0.159469
H	 1.2920416645	 4.5334144977	-2.7567756514	 0.206366
63.338	174.9129	330.0554	461.2644	503.3845	628.4845	656.8389	732.2284	977.4042	1032.4667	1046.3379	1211.5035	1284.7599	1414.7263	1439.8893	1842.3339	2242.7742	2906.4105	3006.0332	3083.9337	3505.5444
O=CCC#C	O=CCC#C	
InChI=1S/C4H4O/c1-2-3-4-5/h1,4H,3H2	InChI=1S/C4H4O/c1-2-3-4-5/h1,4H,3H2
