15
gdb 4854	4.43854	1.5694	1.1754	2.157	65.09	-0.1865	0.0377	0.2243	984.9271	0.11867	-399.81125	-399.803239	-399.802295	-399.845048	28.416	
C	-0.2033545994	 1.4306982525	-0.0560559825	-0.243405
O	-0.0559063111	 0.0147421714	-0.0139027639	-0.269359
C	-1.1767540451	-0.7171842625	 0.0174503143	 0.445262
C	-1.3331474032	-2.0675511072	 0.0615510744	-0.315753
C	-2.7535990766	-2.2795919949	 0.0779925847	-0.170824
C	-3.3567014811	-1.0668076515	 0.0428281443	 0.272865
N	-4.6930314096	-0.6778768376	 0.0393402664	-0.597278
O	-2.3658976473	-0.0752717658	 0.0049909763	-0.217922
H	 0.8101329251	 1.832724423	-0.0760648013	 0.13654
H	-0.7458947568	 1.7480609656	-0.9528811439	 0.131043
H	-0.7323382155	 1.8024872133	 0.8278745487	 0.131008
H	-0.5453112672	-2.8013148056	 0.0795647094	 0.105818
H	-3.2718679086	-3.2249492507	 0.1115877442	 0.108739
H	-4.9517466263	-0.1616198217	-0.795800586	 0.241633
H	-4.9422996274	-0.1141726384	 0.846215775	 0.241633
15.702	154.4696	164.7867	200.8644	226.8153	345.2521	386.9259	526.7491	607.2477	624.6725	680.7706	719.6805	757.8341	768.5871	848.1231	946.7842	981.6287	1024.5444	1077.9488	1167.3322	1176.8301	1204.124	1212.8608	1258.6457	1309.5442	1391.949	1479.1771	1484.4505	1502.8883	1636.8294	1660.7814	1697.3681	3029.0702	3094.154	3146.9187	3259.7251	3278.2254	3488.4844	3551.346
COC1=CC=C(N)O1	COc1ccc(N)o1	
InChI=1S/C5H7NO2/c1-7-5-3-2-4(6)8-5/h2-3H,6H2,1H3	InChI=1S/C5H7NO2/c1-7-5-3-2-4(6)8-5/h2-3H,6H2,1H3
