18
gdb 277	6.99745	1.88283	1.60043	0.9451	61.01	-0.2508	0.0876	0.3384	817.8428	0.16427	-272.83269	-272.824541	-272.823597	-272.864643	28.268	
C	-0.0131813351	 1.3895852324	-0.0049829201	-0.226593
O	 0.0085363759	-0.0156855384	-0.0192253617	-0.232919
C	-1.281644361	-0.5882139968	 0.0144102957	-0.035333
C	-1.159716023	-2.1108577257	-0.0287437717	 0.023034
C	-2.5383244151	-2.7589881031	 0.1460955943	-0.392534
C	-0.4737738562	-2.5764671991	-1.3188748481	-0.379359
H	 1.0232605947	 1.7355774614	-0.0312559542	 0.124699
H	-0.5469921256	 1.800856228	-0.8770089266	 0.10157
H	-0.495207129	 1.7830173275	 0.9047158602	 0.101076
H	-1.8122987615	-0.273460557	 0.9300936832	 0.078334
H	-1.8809465652	-0.231981582	-0.8438231709	 0.077587
H	-0.5275456676	-2.400254466	 0.8214313038	 0.082104
H	-3.2111081441	-2.4826246832	-0.6746935065	 0.112461
H	-2.4576167218	-3.8503839497	 0.1511343867	 0.114199
H	-3.0132054145	-2.4539449513	 1.0847970804	 0.110396
H	-1.0883150102	-2.3343851347	-2.1949282342	 0.105128
H	 0.4949068184	-2.0866742518	-1.4407603748	 0.130245
H	-0.3171731891	-3.6600600207	-1.3126135653	 0.105907
88.1167	112.6823	183.9269	212.8957	235.5462	248.796	321.9983	378.3699	441.2397	474.4645	835.258	921.1722	930.8459	956.5342	977.0255	1001.8617	1141.9623	1162.2324	1176.0687	1198.4238	1200.6604	1235.2003	1276.4977	1331.8736	1372.5607	1397.431	1409.4177	1430.4158	1480.1628	1485.4486	1489.5507	1489.8813	1502.3242	1503.3276	1512.6637	1526.6398	2932.7514	2962.7706	2966.7193	3007.0169	3019.964	3024.1183	3030.0848	3087.5391	3093.1277	3101.9666	3109.9557	3126.7641
COCC(C)C	COCC(C)C	
InChI=1S/C5H12O/c1-5(2)4-6-3/h5H,4H2,1-3H3	InChI=1S/C5H12O/c1-5(2)4-6-3/h5H,4H2,1-3H3
