11
gdb 3863	8.00909	2.08678	1.65781	2.8238	49.28	-0.2172	0.0235	0.2407	680.8995	0.079578	-376.570473	-376.564499	-376.563555	-376.599912	22.588	
N	 0.0602062718	 1.363105792	 0.2282948394	-0.591471
C	-0.0844298997	 0.0080357318	 0.0687400992	 0.514217
C	-1.1728158947	-0.8181603658	 0.0306800206	-0.452012
C	-0.5734446305	-2.0987422079	-0.0768911862	 0.488512
O	-1.2485631934	-3.2568626409	-0.1472449149	-0.420861
N	 0.7380890793	-2.0725616427	-0.1055004935	-0.277744
O	 1.0543528695	-0.6927057345	-0.0114418271	-0.219882
H	 0.94923337	 1.7228049249	-0.0891797104	 0.268039
H	-0.7232853977	 1.915570582	-0.084593683	 0.266837
H	-2.2179224223	-0.5697637695	 0.0800632596	 0.11455
H	-0.5961432722	-3.9674582296	-0.2113596437	 0.309814
205.1441	268.083	326.8947	392.0371	456.8118	477.0727	568.3891	623.4211	679.3834	713.6304	755.6843	779.1685	932.5734	1009.2497	1049.5895	1087.4651	1195.5377	1244.8852	1392.7666	1559.141	1569.9185	1635.3219	1684.1719	3292.1341	3574.3661	3680.8421	3777.1832
NC1=CC(O)=NO1	Nc1cc(O)no1	
InChI=1S/C3H4N2O2/c4-2-1-3(6)5-7-2/h1H,4H2,(H,5,6)	InChI=1S/C3H4N2O2/c4-2-1-3(6)5-7-2/h1H,4H2,(H,5,6)
