11
gdb 3893	5.82783	2.78506	1.88448	5.3011	55.5	-0.228	-0.0402	0.1878	610.7104	0.081491	-339.459612	-339.454352	-339.453408	-339.488597	19.748	
O	 0.0317911115	-0.0719716095	 0.003233404	-0.386257
C	-0.0333246478	 1.1507135848	 0.0098716794	 0.351579
C	-1.2608301503	 1.932115465	 0.030300178	-0.252642
C	-1.1901189844	 3.2862110717	 0.0360398893	 0.055554
N	 0.0106790524	 3.9240070096	 0.0230560335	-0.209274
N	 1.2009661727	 3.2999767732	 0.0040121292	-0.168724
C	 1.1747860077	 2.0021553189	-0.0020339352	-0.077432
H	-2.2168776214	 1.4245456204	 0.0406664426	 0.123708
H	-2.0574290253	 3.9374708277	 0.050918916	 0.140806
H	 0.0715669941	 4.9287791265	 0.0272059728	 0.283808
H	 2.1412303309	 1.5067591018	-0.0173914497	 0.138875
159.5159	427.4122	442.5209	446.9492	535.234	585.4636	622.2896	752.7144	817.0898	853.392	953.4092	971.7716	993.2149	1043.6341	1098.7633	1245.4241	1265.7699	1365.353	1417.4732	1506.7107	1621.6922	1644.6039	1745.0695	3184.5725	3191.7372	3223.195	3655.3597
O=C1C=CNN=C1	O=c1cc[nH]nc1	
InChI=1S/C4H4N2O/c7-4-1-2-5-6-3-4/h1-3H,(H,5,7)	InChI=1S/C4H4N2O/c7-4-1-2-5-6-3-4/h1-3H,(H,5,7)
