17
gdb 2465	5.53741	2.28849	1.94851	1.3933	63.51	-0.2331	0.0885	0.3216	718.7505	0.149431	-309.711894	-309.70544	-309.704496	-309.742044	25.134	
C	 0.1518856566	 1.5437184872	 0.0692436228	-0.400358
C	 0.0798133678	 0.0297064068	-0.0137516642	 0.166944
C	 0.7753614545	-0.6109211281	-1.2380540626	-0.260594
C	 1.2973804211	-1.9367765659	-0.6869712377	-0.06264
C	 2.5516846686	-1.8899251627	 0.1661349575	-0.301509
C	 1.193988877	-1.816229622	 0.8082911062	 0.102646
O	 0.7384945921	-0.5298957643	 1.1356788657	-0.273962
H	 1.1937698983	 1.8788557887	 0.0567134227	 0.119237
H	-0.3712538679	 1.997409036	-0.7785929037	 0.113778
H	-0.3133964331	 1.9027859196	 0.9914516419	 0.125916
H	-0.9755774221	-0.2892572336	 0.0016629861	 0.0663
H	 0.0742769867	-0.7593894589	-2.0639446245	 0.102255
H	 1.5868740828	 0.0292686901	-1.603585299	 0.100091
H	 1.0498610469	-2.8583101669	-1.1998136726	 0.089033
H	 3.1208565024	-2.8078532229	 0.2733394415	 0.107966
H	 3.1423319242	-0.9794469844	 0.1607571997	 0.113948
H	 0.8279057339	-2.6091688788	 1.4533749402	 0.090948
97.3791	227.9988	300.6563	314.9602	439.6246	456.5896	598.8653	701.8069	777.2603	807.9787	830.2702	903.0799	903.7942	934.6276	968.7037	1017.4104	1033.0175	1064.1791	1093.8947	1111.3479	1140.5882	1148.7234	1161.2692	1204.8457	1230.8603	1286.1617	1320.5121	1364.7118	1377.6887	1392.5348	1410.1634	1470.7553	1483.2844	1493.6264	1499.1958	2960.0174	3034.0927	3039.5277	3091.8903	3111.9655	3117.5959	3123.154	3150.9183	3179.8172	3215.4061
CC1CC2CC2O1	C[C@H]1C[C@H]2C[C@H]2O1	
InChI=1S/C6H10O/c1-4-2-5-3-6(5)7-4/h4-6H,2-3H2,1H3	InChI=1S/C6H10O/c1-4-2-5-3-6(5)7-4/h4-6H,2-3H2,1H3/t4-,5-,6+/m0/s1
