13
gdb 968	3.63168	3.48374	1.81545	2.2985	55.55	-0.2294	0.0104	0.2398	669.1394	0.102795	-340.670034	-340.663334	-340.66239	-340.700658	23.806	
C	-0.0910184276	 1.5439030308	 0.154924191	-0.492226
C	 0.0222197156	 0.0650294874	 0.0140820149	 0.261243
C	 0.0341320461	-0.6791573596	-1.1211284753	 0.191691
N	-0.0502598653	-0.3404051463	-2.4685036537	-0.597658
O	 0.1576193733	-2.012497324	-0.7434417169	-0.16664
C	 0.2109880093	-1.9678330213	 0.6017011901	 0.06864
N	 0.1373940745	-0.784645111	 1.1154149302	-0.312285
H	 0.7825393448	 1.9559326852	 0.67128517	 0.134426
H	-0.171038852	 2.0115413269	-0.8287672151	 0.136644
H	-0.9720168494	 1.8143354196	 0.746696968	 0.134435
H	 0.7747674615	-0.61415549	-2.9928348915	 0.249476
H	-0.8616281141	-0.7467253231	-2.9236004871	 0.249472
H	 0.3088140132	-2.9112490445	 1.1175296455	 0.142782
99.2704	173.6447	245.6734	259.3021	299.1311	442.5088	648.9331	652.6225	694.3841	740.4484	773.9874	842.7001	955.6006	976.2213	1048.4142	1071.115	1170.5726	1216.132	1238.1048	1308.9744	1361.1508	1420.3179	1481.5221	1488.8161	1558.5454	1652.2753	1718.8988	3037.6076	3090.9879	3132.6968	3261.2334	3496.66	3563.162
CC1=C(N)OC=N1	Cc1c(N)ocn1	
InChI=1S/C4H6N2O/c1-3-4(5)7-2-6-3/h2H,5H2,1H3	InChI=1S/C4H6N2O/c1-3-4(5)7-2-6-3/h2H,5H2,1H3
