14
gdb 4872	2.92502	1.41964	0.96059	4.1285	66.14	-0.269	-0.0936	0.1755	1157.7387	0.104063	-415.891316	-415.881986	-415.881042	-415.92665	30.839	
N	-0.1442906999	-0.0670277337	-0.5598129591	-0.717783
H	 0.2736894257	-0.4661470318	 0.2777493427	 0.260151
H	 0.5821433432	-0.0764552897	-1.2708173563	 0.240746
H	-0.8477290162	-0.7321230684	-0.8698737879	 0.240735
C	-0.5314973195	 2.239101766	 1.8003509348	-0.417246
C	 0.0644264528	 1.5367229208	 2.7635369336	 0.374596
C	 0.3107615529	 1.8647877628	 4.1606936849	-0.067713
N	 0.9214879802	 0.9220942386	 4.7882340693	-0.28176
C	 1.1246361535	-0.1137173213	 3.830407044	 0.453331
O	 1.6516241784	-1.1679747078	 3.9826989917	-0.318276
O	 0.5924294579	 0.2818586492	 2.5957064655	-0.246508
H	-0.9177186839	 3.2242881091	 2.0318495578	 0.135331
H	-0.6315349189	 1.8352689	 0.7964105306	 0.189192
H	 0.0182159937	 2.795803156	 4.6346554583	 0.155203
48.6158	61.925	113.6823	127.8404	158.8667	193.2016	282.129	306.4033	336.5531	546.5817	627.7845	678.405	752.6909	775.0631	810.5419	872.4017	935.1416	976.3371	982.031	996.3064	1067.0204	1116.8875	1302.0148	1331.4174	1441.9339	1620.5019	1676.3081	1690.071	1720.1583	1911.1225	3136.0921	3203.0915	3252.9161	3462.9239	3579.6716	3583.5749
[NH3+]CC1=CN=C([O-])O1	N.C=C1C=NC(=O)O1	
InChI=1S/C4H6N2O2/c5-1-3-2-6-4(7)8-3/h2H,1,5H2,(H,6,7)	InChI=1S/C4H3NO2.H3N/c1-3-2-5-4(6)7-3;/h2H,1H2;1H3
