12
gdb 3400	4.80577	2.59933	2.28442	4.8776	50.58	-0.2453	0.0078	0.2531	600.5321	0.090613	-360.491959	-360.486079	-360.485135	-360.521498	22.168	
O	-0.2234859124	 1.4112117438	 0.0254585291	-0.409271
C	-0.080952731	 0.0271862722	 0.0530530572	 0.105861
C	-0.4492857404	-0.8049978859	 1.2477176665	-0.065289
N	-1.5656218185	-0.2272158822	 1.9980819175	-0.339335
C	-2.3887110133	-0.1731088175	 0.8511313237	 0.438926
O	-3.4980348557	 0.239201996	 0.6884535292	-0.331324
C	-1.3226512519	-0.8358399487	-0.0157480983	-0.272678
H	 0.5624888178	 1.8041417555	 0.4207792191	 0.292146
H	 0.7479942655	-0.3665079646	-0.5390347591	 0.101916
H	 0.1531871056	-1.5967395987	 1.6746865179	 0.114151
H	-1.4538010121	 0.5833864852	 2.5973198701	 0.24193
H	-1.4653354234	-1.606277785	-0.7600213029	 0.122967
147.5367	246.8633	310.5838	420.8406	463.9668	551.274	663.8973	739.7552	751.5889	797.7929	845.1153	919.4134	936.4256	1014.7027	1051.0921	1062.0368	1092.8245	1135.397	1204.2845	1264.4337	1281.6386	1320.6775	1336.6872	1446.3139	1912.6942	3087.8292	3196.9314	3225.4952	3543.9778	3802.4152
OC1C2NC(=O)C12	O[C@H]1[C@H]2NC(=O)[C@@H]12	
InChI=1S/C4H5NO2/c6-3-1-2(3)5-4(1)7/h1-3,6H,(H,5,7)	InChI=1S/C4H5NO2/c6-3-1-2(3)5-4(1)7/h1-3,6H,(H,5,7)/t1-,2+,3-/m1/s1
