14
gdb 436	4.68086	3.99775	2.60447	1.022	49.03	-0.2476	0.0591	0.3067	529.6164	0.11984	-307.55036	-307.544139	-307.543195	-307.579988	22.931	
O	-0.1032678408	 1.4196783751	 0.1099729029	-0.440102
C	 0.0089956561	 0.0019739211	 0.0468327845	 0.076243
C	 0.1854509839	-0.5671697087	 1.4707879217	-0.225528
C	-1.3445158067	-0.8372607839	 1.5412079875	-0.259505
C	-1.4081505718	-0.6599837477	-0.0041806379	 0.149559
O	-2.4349098617	 0.1092124766	-0.5675751206	-0.437948
H	-0.2222080853	 1.7368154614	-0.7918084528	 0.288761
H	 0.7397072612	-0.2969548135	-0.7145227975	 0.062557
H	 0.7832916193	-1.4817367382	 1.4736547433	 0.105208
H	 0.6041934612	 0.1340737183	 2.1946660535	 0.113685
H	-1.6784376085	-1.7927441389	 1.9511933952	 0.100132
H	-1.8802979821	-0.0312404344	 2.0500083023	 0.105743
H	-1.3986542152	-1.6182108837	-0.5314903027	 0.086135
H	-2.3288343795	 0.9930269265	-0.1920616094	 0.27506
102.72	204.209	261.7161	386.6409	400.7177	558.6477	586.2328	689.7878	737.696	851.6208	903.4287	923.8484	955.007	1001.9364	1076.0766	1116.9634	1147.9298	1195.6133	1224.2906	1230.2973	1255.1154	1281.1456	1313.3349	1329.0868	1416.5833	1439.8874	1468.4514	1487.5357	3022.017	3063.5428	3071.0179	3076.178	3115.894	3133.2053	3765.3773	3810.0292
OC1CCC1O	O[C@H]1CC[C@H]1O	
InChI=1S/C4H8O2/c5-3-1-2-4(3)6/h3-6H,1-2H2	InChI=1S/C4H8O2/c5-3-1-2-4(3)6/h3-6H,1-2H2/t3-,4+
