13
gdb 288	5.05033	3.24897	2.23698	4.1096	46.24	-0.26	0.0186	0.2786	574.3293	0.10692	-323.665987	-323.658861	-323.657917	-323.69684	24.979	
C	-0.0181989068	 1.6011234048	 0.0115456828	-0.388472
C	 0.0683570348	 0.0679624852	-0.0067420359	 0.056481
O	 0.8352889429	-0.3960393687	 1.0709591261	-0.436369
C	-1.3240759807	-0.5812869207	 0.0765951055	 0.386121
N	-2.162588199	-0.365472121	-0.9659466539	-0.516482
O	-1.6310023335	-1.2448641625	 1.0539658541	-0.376867
H	 0.9931195126	 2.0149573735	 0.0264519465	 0.135539
H	-0.5396982228	 1.9954349566	-0.8670517364	 0.099132
H	-0.5413976366	 1.9394967885	 0.9106867524	 0.131175
H	 0.5336459284	-0.2512898678	-0.9542550525	 0.08274
H	 0.2155454894	-0.9251985265	 1.602605567	 0.292348
H	-1.8713147985	 0.1278095167	-1.7913075621	 0.266186
H	-3.0709381203	-0.799681868	-0.9552034737	 0.26847
57.6898	186.8698	228.6463	255.9977	328.107	399.3529	460.8155	492.4688	557.5838	643.0045	721.7068	785.3175	923.5393	1040.9439	1095.6606	1105.3398	1173.7907	1269.4246	1351.8471	1366.2261	1405.888	1453.6475	1492.3923	1500.1803	1620.0025	1784.8542	2964.8301	3038.7293	3111.7912	3127.64	3604.9119	3644.4464	3738.9637
CC(O)C(N)=O	C[C@@H](O)C(=O)N	
InChI=1S/C3H7NO2/c1-2(5)3(4)6/h2,5H,1H3,(H2,4,6)	InChI=1S/C3H7NO2/c1-2(5)3(4)6/h2,5H,1H3,(H2,4,6)/t2-/m1/s1
