16
gdb 1901	3.65023	2.95308	2.21579	1.5553	61.08	-0.2406	0.0709	0.3115	667.924	0.13707	-325.699665	-325.693006	-325.692062	-325.7298	25.744	
C	-0.0788014733	 1.5524061499	-0.0547807583	-0.443786
C	 0.1099417138	 0.0498086294	-0.0003549938	 0.066222
N	 1.3504380637	-0.5778319891	-0.6927296766	-0.151368
C	 2.145833903	-0.1452643168	 0.5487787527	-0.244601
C	 0.8240863927	-0.6893904258	 1.1485766274	 0.33467
O	 0.3720148526	-0.7150728992	 2.4572002777	-0.464411
C	 1.00275694	-1.8341076321	 0.118045359	-0.23039
H	-0.2335854005	 1.8703105297	-1.0909740419	 0.130258
H	-0.9727353263	 1.8240144046	 0.5159531491	 0.129175
H	 0.7583765615	 2.1223356061	 0.3528025446	 0.121499
H	-0.8024325574	-0.4444548556	-0.352290567	 0.073305
H	 3.0552447337	-0.7341194935	 0.6980723836	 0.095515
H	 2.3614623657	 0.92136621	 0.5997428596	 0.105548
H	 0.9911862695	-1.2258093599	 2.99038606	 0.281523
H	 0.109672346	-2.3537493167	-0.2384834525	 0.102534
H	 1.8494609153	-2.5153257711	 0.2382559065	 0.094307
150.5872	203.5604	241.7371	335.3733	395.6626	405.312	579.789	612.0398	621.1384	744.1492	803.9906	826.2715	889.2444	960.8082	977.3387	1009.7325	1047.965	1089.7697	1100.6651	1128.9575	1163.9976	1174.6189	1186.0016	1200.1904	1255.1388	1293.8802	1356.8314	1407.4414	1435.95	1490.4967	1493.6417	1517.9868	1555.2054	3040.326	3045.484	3051.7733	3067.0341	3105.6593	3120.9723	3127.3507	3147.3281	3805.4129
CC1N2CC1(O)C2	C[C@H]1N2C[C@]1(O)C2	
InChI=1S/C5H9NO/c1-4-5(7)2-6(4)3-5/h4,7H,2-3H2,1H3	InChI=1S/C5H9NO/c1-4-5(7)2-6(4)3-5/h4,7H,2-3H2,1H3/t4-/m1/s1
