14
gdb 1309	3.5428	2.65711	2.21803	2.5062	54.09	-0.2424	0.026	0.2684	663.4271	0.112415	-361.733362	-361.725984	-361.72504	-361.764477	26.451	
C	-0.0568299698	 1.5930513848	-0.0097519974	-0.446157
C	-0.0424697049	 0.0728537721	-0.0213504161	 0.263347
O	-1.3319682717	-0.4802559656	 0.147391535	-0.471341
C	 0.7198680406	-0.6189684134	-1.1934889637	-0.188486
N	 1.6866150105	-1.0966851456	-0.1944697716	-0.33249
C	 1.0231872509	-0.6023672767	 0.8967970306	 0.381007
O	 1.1807798955	-0.6962896879	 2.0861075739	-0.372132
H	 0.9384272605	 2.0023840158	-0.2092526823	 0.123878
H	-0.7539421664	 1.9682136664	-0.7649925436	 0.128706
H	-0.3800014294	 1.957168988	 0.9710173998	 0.129335
H	-1.5498391843	-0.4148120248	 1.0848694752	 0.293693
H	 0.1322471438	-1.409583023	-1.6670491709	 0.125937
H	 1.1472321603	 0.0477174017	-1.9479990434	 0.111803
H	 2.4471149644	-1.7570407519	-0.2648656655	 0.2529
111.744	163.734	215.3486	236.1741	287.0024	339.5072	384.0636	495.3236	558.3313	695.5867	748.5493	774.2745	872.6353	945.0277	973.6495	995.0561	1101.7276	1152.226	1182.0544	1218.3449	1229.957	1302.9038	1355.6558	1395.8482	1406.8085	1486.167	1489.9752	1518.2682	1891.1421	3034.9263	3052.1067	3106.4611	3110.4881	3115.6093	3604.3305	3793.6284
CC1(O)CNC1=O	C[C@@]1(O)CNC1=O	
InChI=1S/C4H7NO2/c1-4(7)2-5-3(4)6/h7H,2H2,1H3,(H,5,6)	InChI=1S/C4H7NO2/c1-4(7)2-5-3(4)6/h7H,2H2,1H3,(H,5,6)/t4-/m1/s1
