14
gdb 3221	3.46848	3.3462	2.29064	3.5606	52.37	-0.2355	0.0622	0.2977	613.3968	0.114207	-361.656187	-361.64979	-361.648845	-361.686542	24.217	
O	 0.1011551559	 1.3744431427	 0.2111323889	-0.428321
C	 0.0529780551	-0.0122306741	 0.0589690706	 0.108427
C	-1.3317862758	-0.6619198392	 0.0142270903	-0.08594
N	-1.9694347269	-0.050094883	-1.1837691191	-0.379695
C	-1.0815252551	-1.235139935	-1.3368324078	-0.085984
C	 0.3228238634	-0.6302856079	-1.397148547	 0.108492
O	 0.5946956246	 0.2447804767	-2.4500658691	-0.428303
H	-0.6113625278	 1.7296431284	-0.3353224056	 0.285823
H	 0.7169582619	-0.4499017319	 0.8077284933	 0.091044
H	-1.938916631	-1.0414956453	 0.8266981784	 0.098923
H	-2.9350266573	-0.3683465902	-1.2275786105	 0.239732
H	-1.4556395812	-2.1485035044	-1.7824808537	 0.098923
H	 1.1209017471	-1.3756377764	-1.3727645499	 0.091061
H	-0.197866733	 0.7849151297	-2.5620864688	 0.285818
70.8224	232.4062	282.0044	326.4382	494.2077	518.8369	588.4938	653.4837	705.7256	790.8992	842.2255	848.0351	906.8366	940.6411	976.7689	1030.2151	1084.977	1088.0149	1125.9891	1161.092	1168.1403	1233.9031	1234.2768	1301.7766	1321.3292	1330.41	1369.6664	1426.984	1452.2012	3086.1778	3099.3163	3187.25	3200.7804	3502.5858	3770.1168	3777.8368
OC1C2NC2C1O	O[C@H]1[C@H]2N[C@H]2[C@H]1O	
InChI=1S/C4H7NO2/c6-3-1-2(5-1)4(3)7/h1-7H	InChI=1S/C4H7NO2/c6-3-1-2(5-1)4(3)7/h1-7H/t1-,2+,3-,4+
