14
gdb 1903	5.92556	2.15082	1.89947	2.5921	58.63	-0.2409	-0.0197	0.2212	692.7493	0.113376	-324.55724	-324.550872	-324.549928	-324.587289	23.948	
C	 0.0207990149	 1.534560704	 0.0437226925	-0.482482
C	-0.0383182489	 0.0379253245	 0.0624497976	 0.341203
C	-1.3093956413	-0.8305312463	-0.0356808414	-0.421804
C	-0.6331316232	-1.7740322297	 1.0033397937	 0.419043
O	-1.0368409459	-2.6933882111	 1.6554597393	-0.307611
C	 0.6237137933	-0.9421465413	 1.0294530323	-0.205053
N	 1.1072667794	-0.7405448169	-0.3536144161	-0.34426
H	 1.0317016522	 1.8778579966	 0.2764346478	 0.140148
H	-0.2464940834	 1.9192664874	-0.9470858896	 0.13039
H	-0.6763356756	 1.9642108713	 0.7699297453	 0.126668
H	-2.2092399467	-0.3873588923	 0.40322125	 0.133956
H	-1.552484859	-1.2226142111	-1.028241939	 0.118971
H	 1.3226651698	-0.7941520133	 1.8441740488	 0.112456
H	 0.8666435543	-1.5166961418	-0.9681397711	 0.238373
116.064	210.9902	282.1984	359.4044	429.22	469.3494	572.8977	617.5638	671.8315	767.0476	834.1921	942.1627	955.8063	975.7657	1031.0915	1055.2096	1081.7912	1120.3423	1140.6422	1169.1439	1208.9901	1231.8303	1296.9741	1396.5211	1438.9732	1465.7367	1483.2908	1494.2639	1883.5407	3035.5574	3049.1927	3097.4194	3102.0949	3127.0446	3191.827	3460.2484
CC12CC(=O)C1N2	C[C@]12CC(=O)[C@H]1N2	
InChI=1S/C5H7NO/c1-5-2-3(7)4(5)6-5/h4,6H,2H2,1H3	InChI=1S/C5H7NO/c1-5-2-3(7)4(5)6-5/h4,6H,2H2,1H3/t4-,5+/m1/s1
