9
gdb 3822	9.81006	2.07938	1.71571	6.6881	50.41	-0.2906	-0.0461	0.2445	640.6215	0.058403	-334.447259	-334.442126	-334.441182	-334.476257	17.945	
N	-0.0139542396	-1.1031777991	-0.0033357937	-0.323643
C	-0.0130354139	 0.0524298921	 0.0031055226	 0.280204
C	-0.0012622708	 1.478979629	 0.0109340308	 0.248624
N	-1.1265505464	 2.1877735888	 0.0297872451	-0.241459
N	-0.6535188219	 3.4458662498	 0.0304584698	-0.166254
C	 0.6979144365	 3.4496157072	 0.0125447173	 0.020895
N	 1.150461669	 2.2143298741	-0.0002697256	-0.283746
H	-1.2992066614	 4.219898915	 0.0432990328	 0.298922
H	 1.2902729884	 4.351822103	 0.0096618208	 0.166457
185.456	187.3509	513.2629	571.0457	592.2398	597.9394	683.917	774.8043	865.9269	994.8203	1006.5199	1117.4028	1172.1397	1296.6093	1338.7582	1452.7129	1462.2751	1529.9003	2371.8881	3267.3581	3653.5047
N#CC1=NNC=N1	N#Cc1n[nH]cn1	
InChI=1S/C3H2N4/c4-1-3-5-2-6-7-3/h2H,(H,5,6,7)	InChI=1S/C3H2N4/c4-1-3-5-2-6-7-3/h2H,(H,5,6,7)
