12
gdb 2617	12.11759	1.01216	0.94698	4.2784	56.06	-0.2796	-0.0138	0.2658	1098.8922	0.090318	-319.560814	-319.553465	-319.55252	-319.592953	24.182	
N	-0.0191968733	-1.1572135873	-0.0005493522	-0.283915
C	-0.0100666722	-0.0027497683	-0.0084256477	 0.262299
C	-0.0050866937	 1.4612414995	 0.0124784461	-0.262459
N	 1.358654407	 1.9772564589	-0.0577045339	-0.298
C	 1.3898346955	 3.4350689347	 0.0112991577	-0.262466
C	 2.7681745242	 3.9284435815	-0.0109145897	 0.262328
N	 3.8532037694	 4.3229052513	-0.0043187503	-0.283931
H	-0.5634790904	 1.8223304036	-0.8605936714	 0.165633
H	-0.5670611081	 1.7924244247	 0.9049441633	 0.141118
H	 1.9222733021	 1.579405447	 0.6864695742	 0.252638
H	 0.8624040644	 3.8401632899	-0.8617165219	 0.165638
H	 0.890683035	 3.8549583446	 0.9037830358	 0.141117
91.7141	96.7806	99.9935	222.9857	333.3873	389.9453	391.0521	487.2085	606.8039	766.891	914.1688	970.6037	986.721	1017.4739	1109.7943	1144.6289	1224.0258	1284.6939	1345.2062	1413.1261	1486.6003	1498.5744	1501.5415	2372.9142	2373.8005	2942.1133	2943.2242	3047.0392	3048.1262	3533.9066
N#CCNCC#N	N#CCNCC#N	
InChI=1S/C4H5N3/c5-1-3-7-4-2-6/h7H,3-4H2	InChI=1S/C4H5N3/c5-1-3-7-4-2-6/h7H,3-4H2
