15
gdb 2068	4.71747	2.61696	1.80529	2.9432	58.62	-0.2305	0.0196	0.2502	694.2673	0.128248	-341.83678	-341.830553	-341.829608	-341.866969	23.356	
N	-0.0720083933	 1.3149940608	-0.197527426	-0.502512
C	-0.0113944018	 0.0757455912	 0.0494909319	 0.37267
C	-1.2700881558	-0.771949801	 0.112517594	-0.241017
N	-1.2082134026	-1.9293475289	 1.0051930355	-0.287475
C	 0.0325720227	-2.6658292195	 0.777909722	-0.175798
C	 1.2592751601	-1.7785930557	 0.9481864952	-0.073383
O	 1.1853623955	-0.576481863	 0.1635562962	-0.249881
H	 0.8712059935	 1.7076914026	-0.2511987957	 0.216813
H	-2.10572335	-0.1248769083	 0.3819612678	 0.138082
H	-1.4638077119	-1.1420235784	-0.9043695686	 0.132802
H	-1.2405786812	-1.6133692599	 1.9710587157	 0.220707
H	 0.0937984454	-3.5133848658	 1.46875835	 0.110847
H	 0.0043786354	-3.071820012	-0.2413685657	 0.117824
H	 1.3730608646	-1.4960388673	 2.0054129649	 0.102323
H	 2.1776631694	-2.2813222246	 0.630608943	 0.117998
97.5428	176.8747	339.1958	407.169	453.5941	488.1151	543.7352	676.0499	782.1073	829.1276	894.1518	904.7223	923.9816	985.2192	1015.6399	1052.5294	1134.0358	1146.4271	1156.0143	1222.7514	1279.2334	1315.0626	1340.3877	1350.218	1388.4373	1427.5082	1462.2108	1478.4475	1485.3774	1506.3645	1750.2877	2996.6522	3014.6259	3029.7092	3081.4139	3086.8957	3127.6962	3450.0478	3494.6969
N=C1CNCCO1	[NH][C]1CNCCO1	
InChI=1S/C4H8N2O/c5-4-3-6-1-2-7-4/h5-6H,1-3H2	InChI=1S/C4H8N2O/c5-4-3-6-1-2-7-4/h5-6H,1-3H2
