11
gdb 682	7.87898	3.80242	3.00635	3.8131	46.41	-0.25	-0.0123	0.2378	448.6348	0.085415	-285.267165	-285.2623	-285.261356	-285.29523	17.971	
O	 0.0420145717	 0.0185663063	 0.0160705839	-0.285818
C	-0.0080130368	 1.2058713762	 0.0541717964	 0.40422
C	-1.125866678	 2.2639492207	 0.1335725709	-0.373681
C	 0.0150262865	 3.2757912718	 0.0538969469	-0.015993
C	 1.0064683029	 3.0404240217	 1.1088186182	-0.238193
N	 1.0703280271	 2.1724814734	-0.1113084041	-0.169768
H	-1.7610741232	 2.2289587873	-0.7551254775	 0.147261
H	-1.7551711391	 2.2728078811	 1.0270845689	 0.135726
H	 0.0424743283	 4.1378208699	-0.6004820225	 0.118522
H	 1.8625332078	 3.7028076856	 1.1795853836	 0.143244
H	 0.7029788027	 2.5883414862	 2.0502956051	 0.13448
171.4721	384.3021	473.9834	564.2355	657.1076	742.8785	787.8517	838.5762	931.6588	982.5606	1014.9235	1034.7329	1057.8854	1114.894	1135.7856	1162.6438	1220.2119	1252.613	1357.9162	1453.4565	1506.7909	1923.8944	3069.9882	3114.7469	3125.2709	3199.6342	3213.0012
O=C1CC2CN12	O=C1C[C@H]2CN12	
InChI=1S/C4H5NO/c6-4-1-3-2-5(3)4/h3H,1-2H2	InChI=1S/C4H5NO/c6-4-1-3-2-5(3)4/h3H,1-2H2/t3-,5?/m0/s1
