17
gdb 3604	4.92317	2.00128	1.72544	1.4416	63.55	-0.2439	0.0801	0.324	779.3468	0.148281	-309.680682	-309.673425	-309.672481	-309.712101	27.252	
O	-0.4394207384	 1.0646791145	 1.3275116641	-0.417601
C	-0.0865960735	 0.0733115085	 0.406466326	 0.105984
C	-0.7224133928	-1.2681082478	 0.6168588864	-0.31402
C	-1.1088945466	-0.435683413	-0.5895091215	-0.058603
C	-2.453466124	 0.2061516817	-0.7556390419	-0.004506
C	-3.720834926	-0.62048631	-0.7619100182	-0.264868
C	-3.4541936605	 0.3443122375	 0.3629108161	-0.261741
H	-0.6144906091	 1.8758941243	 0.8395458078	 0.287171
H	 0.9562124522	 0.1007961029	 0.0890192251	 0.081406
H	-0.1320616485	-2.1639780521	 0.4607771723	 0.110047
H	-1.4222588083	-1.3280457873	 1.4428038397	 0.124927
H	-0.6831139254	-0.7797276467	-1.5302970744	 0.083656
H	-2.4460715396	 1.0303980972	-1.4665288807	 0.077652
H	-4.493186082	-0.3801041434	-1.484168041	 0.108082
H	-3.6202575207	-1.6792713173	-0.5484530107	 0.113293
H	-3.2007327852	-0.0575819292	 1.3361315545	 0.122834
H	-4.0369221517	 1.2581003402	 0.4068904363	 0.106288
60.2437	152.7726	220.5553	247.0709	329.0919	393.4731	508.4743	580.5516	719.6502	784.7762	802.842	833.0495	852.7466	903.162	922.8241	995.0789	1000.4937	1056.1291	1058.2457	1075.1549	1109.5583	1131.6833	1138.8708	1149.9482	1179.5725	1198.4743	1221.9391	1258.6782	1309.1108	1384.6465	1413.6513	1417.6957	1466.4931	1488.4033	1508.901	3090.4451	3112.1773	3122.4262	3132.8822	3138.3753	3142.264	3213.3992	3224.811	3229.466	3807.4624
OC1CC1C1CC1	O[C@H]1C[C@H]1C1CC1	
InChI=1S/C6H10O/c7-6-3-5(6)4-1-2-4/h4-7H,1-3H2	InChI=1S/C6H10O/c7-6-3-5(6)4-1-2-4/h4-7H,1-3H2/t5-,6-/m0/s1
