13
gdb 2992	5.72788	1.78521	1.45072	1.3857	50.82	-0.2762	-0.0452	0.231	792.288	0.099858	-381.56631	-381.559328	-381.558384	-381.597754	24.319	
O	 0.1793100013	 1.6344691528	-0.0094327889	-0.429342
C	 0.017896047	 0.251695967	 0.1178653623	 0.020533
C	 0.6154075201	-0.4671166888	-1.0807185643	 0.130711
O	 1.122105308	 0.1469158853	-1.9886408015	-0.259239
C	 0.6693126141	-0.2526357147	 1.3986028382	 0.05998
C	-0.1203919217	-0.502224345	 2.6072625167	-0.170466
O	 0.3217895007	-1.5835411301	 1.7802131504	-0.235647
H	 0.6202544415	 1.7657421098	-0.8650764905	 0.298199
H	-1.0494983284	-0.0314480466	 0.1545290235	 0.101209
H	 0.5605500461	-1.5718965223	-1.0688314915	 0.123433
H	 1.7243055446	 0.0027009665	 1.5015139628	 0.110265
H	 0.3557697712	-0.4400549875	 3.5836836029	 0.126443
H	-1.1920449346	-0.3096801465	 2.59277728	 0.12392
76.1417	117.1608	202.9675	301.2052	341.2264	393.3283	467.7015	501.408	750.416	815.8477	871.8909	889.8582	951.5968	1008.9877	1094.8226	1138.3798	1154.6063	1162.1877	1172.9628	1263.6709	1279.6187	1306.7522	1383.904	1411.9493	1452.09	1527.1856	1811.3319	2950.5111	2970.9007	3090.9737	3114.756	3182.4492	3673.8924
OC(C=O)C1CO1	O[C@@H](C=O)[C@H]1CO1	
InChI=1S/C4H6O3/c5-1-3(6)4-2-7-4/h1,3-4,6H,2H2	InChI=1S/C4H6O3/c5-1-3(6)4-2-7-4/h1,3-4,6H,2H2/t3-,4+/m0/s1
