17
gdb 1899	3.55371	2.90741	2.1987	1.169	64.45	-0.2568	0.0813	0.3381	687.8277	0.148672	-309.671865	-309.665127	-309.664182	-309.701988	26.541	
C	-0.1479684838	 1.5741025034	 0.027920505	-0.444905
C	 0.0289881688	 0.0639500927	 0.0427472291	 0.037374
C	 1.1859059868	-0.6568114928	-0.7299698629	-0.061989
C	 2.181717765	-0.1603540119	 0.3578133645	-0.294316
C	 0.902509999	-0.6486324205	 1.1115989883	 0.393026
O	 0.6231039611	-0.5887235221	 2.4649550508	-0.473521
C	 0.9158591618	-1.8954934029	 0.1713701643	-0.283831
H	 0.7893596526	 2.1250963482	 0.1359120332	 0.116829
H	-0.6143892375	 1.8947444637	-0.9100375606	 0.113894
H	-0.8077059276	 1.8831312368	 0.8456676568	 0.126571
H	-0.9428528524	-0.4238197189	-0.0986623885	 0.062948
H	 1.3496181298	-0.6640745172	-1.8051659723	 0.076789
H	 3.0835764835	-0.7651894955	 0.4918422553	 0.082661
H	 2.4161820368	 0.9038502235	 0.3893527276	 0.095179
H	 1.3005447686	-1.0818143778	 2.9401238577	 0.281251
H	-0.0369689906	-2.412123156	 0.0287875268	 0.090764
H	 1.747032828	-2.5958512827	 0.2938783048	 0.081273
166.7955	202.6927	241.9525	321.7179	395.4867	408.4147	547.211	589.0915	643.0005	750.4628	794.1154	807.7702	903.2973	943.4355	956.273	994.8448	1000.4661	1043.8384	1088.123	1108.9664	1109.7239	1141.4186	1153.1465	1156.6546	1208.645	1225.5547	1235.4622	1296.6429	1361.4321	1408.4536	1428.4419	1488.3496	1494.7883	1510.3745	1544.3039	3031.0286	3037.9607	3047.0903	3059.2488	3094.6303	3114.3929	3118.1387	3135.5669	3142.4448	3807.7825
CC1C2CC1(O)C2	C[C@H]1[C@H]2C[C@]1(O)C2	
InChI=1S/C6H10O/c1-4-5-2-6(4,7)3-5/h4-5,7H,2-3H2,1H3	InChI=1S/C6H10O/c1-4-5-2-6(4,7)3-5/h4-5,7H,2-3H2,1H3/t4-,5-,6-/m0/s1
