15
gdb 4430	3.38926	1.93384	1.25046	4.3565	65.87	-0.2097	0.027	0.2367	945.7439	0.118015	-399.837637	-399.829883	-399.828939	-399.869566	28.208	
C	 0.1716630866	 1.513354186	 0.0550356865	-0.49415
C	-0.0292961292	 0.0476323298	-0.0037052042	 0.220143
C	-1.0942725126	-0.7538354735	 0.0252813048	 0.235347
C	-2.5549876204	-0.5359750721	 0.1293091603	-0.492358
O	-0.6611494698	-2.0731739134	-0.0669435532	-0.227111
C	 0.6968521179	-2.0522886027	-0.152763107	 0.486935
N	 1.3968284576	-3.092063131	-0.2483158546	-0.582991
O	 1.11278215	-0.7457450418	-0.1154827381	-0.249281
H	 0.7901194429	 1.7931787104	 0.9153438024	 0.147229
H	 0.6769951572	 1.8793486057	-0.8458621864	 0.147225
H	-0.7893442597	 2.0246733227	 0.1418075404	 0.139348
H	-3.0766243526	-0.9445251688	-0.743358256	 0.149635
H	-2.9640749585	-1.0304602503	 1.0173934707	 0.149633
H	-2.7764341796	 0.5311984854	 0.1955510683	 0.137804
H	 2.3831655907	-2.851591357	-0.2996113435	 0.232592
146.2364	156.4167	177.0735	217.0564	250.0849	303.5823	324.2008	531.1701	603.9974	632.2686	636.7506	734.2985	774.2059	811.5462	929.0316	966.3694	1007.0518	1031.4847	1064.6549	1069.6112	1136.1753	1250.6244	1285.8422	1339.4898	1421.9909	1426.5249	1466.1115	1468.0355	1491.2574	1492.6555	1778.9994	1826.7454	3032.5715	3035.1582	3084.1057	3087.0238	3130.935	3135.3691	3545.8777
CC1=C(C)OC(=N)O1	CC1=C(C)O[C@H]([NH])O1	
InChI=1S/C5H7NO2/c1-3-4(2)8-5(6)7-3/h6H,1-2H3	InChI=1S/C5H8NO2/c1-3-4(2)8-5(6)7-3/h5-6H,1-2H3
