11
gdb 3919	8.34064	2.04399	1.64167	5.3484	54.72	-0.2485	-0.0479	0.2005	685.5186	0.080584	-339.462492	-339.4569	-339.455956	-339.492037	19.915	
O	-0.0480969084	-0.0298948383	-0.0016428106	-0.257878
C	 0.023216569	 1.1744364195	 0.0066110033	 0.096057
C	 1.2654724338	 1.9646610993	-0.000622775	 0.244476
N	 2.478082291	 1.3943270367	-0.0180533321	-0.256002
N	 3.3223904137	 2.4253440332	-0.0191663276	-0.162565
C	 2.7102029708	 3.6398661941	-0.0031355052	-0.013934
C	 1.3603032091	 3.379824518	 0.0094654633	-0.271532
H	-0.8928456217	 1.8083194912	 0.0209011176	 0.068408
H	 4.3125208891	 2.239040277	-0.0313918519	 0.285804
H	 3.2733695622	 4.5592382818	-0.0020417582	 0.146381
H	 0.5549447314	 4.0962592675	 0.0237688364	 0.120785
128.4315	213.5816	277.889	490.7516	591.7807	657.165	716.746	774.2787	784.7078	857.5786	945.1724	999.5337	1035.7384	1079.2988	1103.2324	1224.1091	1290.2467	1386.384	1425.1584	1466.195	1485.6443	1560.1156	1813.2648	2869.7192	3261.2626	3279.4198	3654.894
O=CC1=NNC=C1	O=Cc1n[nH]cc1	
InChI=1S/C4H4N2O/c7-3-4-1-2-5-6-4/h1-3H,(H,5,6)	InChI=1S/C4H4N2O/c7-3-4-1-2-5-6-4/h1-3H,(H,5,6)
