17
gdb 1884	4.90852	2.00356	1.61528	2.0953	66.41	-0.2397	0.0186	0.2583	810.2611	0.148823	-309.737951	-309.730634	-309.72969	-309.769209	27.253	
C	-0.0985008574	 1.4595986042	 0.0088131351	-0.489131
C	-0.0120536266	-0.0333060882	-0.0431671242	 0.336454
C	-0.2612934633	-0.8219148361	-1.093050747	-0.212367
C	 0.0121848164	-2.2778141169	-0.811647506	 0.107765
O	 1.1481212558	-2.7584831552	-1.5374680408	-0.434558
C	 0.1872784813	-2.3094660935	 0.7318236349	-0.240708
C	 0.4096183214	-0.8414269293	 1.1681920686	-0.300371
H	 0.865407582	 1.900751588	 0.2937170243	 0.12574
H	-0.3967045494	 1.88344026	-0.9536558128	 0.125341
H	-0.8225315816	 1.7864359651	 0.7659460534	 0.127536
H	-0.5554923909	-0.4744798345	-2.0780997937	 0.08659
H	-0.7996390294	-2.9382375485	-1.1339189477	 0.08228
H	 1.840511063	-2.0940945565	-1.4484921113	 0.270013
H	-0.7221192485	-2.7019415042	 1.1967199158	 0.103524
H	 1.0071076413	-2.9777389914	 1.0058647051	 0.105139
H	 1.4546262322	-0.6248862894	 1.4313169274	 0.102636
H	-0.1789249965	-0.5792979334	 2.0557971887	 0.10412
86.3302	152.2367	190.5487	302.6984	325.7432	401.9756	410.1132	502.1249	590.7727	753.7631	770.883	856.3982	864.4265	895.6102	952.933	985.4856	1024.8603	1033.8197	1061.6855	1088.7772	1160.7459	1178.1172	1236.2461	1270.328	1284.0105	1294.1854	1335.8657	1356.0083	1413.9843	1431.9038	1477.6243	1480.1025	1487.5472	1496.7013	1714.6631	3009.3706	3018.5138	3042.5242	3050.4876	3063.7568	3065.8583	3109.5165	3113.0147	3186.3207	3797.2544
CC1=CC(O)CC1	CC1=C[C@@H](O)CC1	
InChI=1S/C6H10O/c1-5-2-3-6(7)4-5/h4,6-7H,2-3H2,1H3	InChI=1S/C6H10O/c1-5-2-3-6(7)4-5/h4,6-7H,2-3H2,1H3/t6-/m0/s1
