12
gdb 856	7.20274	2.19711	1.68935	2.1678	52.57	-0.182	0.0417	0.2236	688.8067	0.092273	-356.726146	-356.719817	-356.718873	-356.75582	23.972	
N	 0.0217065928	 1.3189482583	 0.1483127172	-0.58756
C	-0.0431904251	-0.0491704918	 0.0622509597	 0.468797
N	-1.1113682091	-0.7900003279	 0.0842994687	-0.378377
C	-0.6113148271	-2.0892264155	 0.0505823148	 0.272591
N	-1.4963678277	-3.1580429712	 0.1317575514	-0.598058
C	 0.7430084002	-2.0592351885	-0.0032766964	-0.142834
O	 1.120193385	-0.7104611104	 0.0078830565	-0.186834
H	 0.8290066253	 1.7312851021	-0.2955337274	 0.263133
H	-0.8477940039	 1.77086655	-0.0917284888	 0.268778
H	-2.4140913431	-2.9029264764	-0.2075748473	 0.251739
H	-1.1659364812	-4.0027469435	-0.3130049925	 0.245152
H	 1.5381903139	-2.7796124754	-0.0410202059	 0.123472
213.4471	252.4134	291.8122	333.3195	359.5942	479.8498	567.2828	588.0689	631.9002	666.2004	725.0316	770.8972	782.5801	978.5781	1018.1142	1077.0761	1125.3079	1150.8461	1259.4162	1379.2575	1464.7844	1602.9003	1631.0366	1676.2984	1689.4786	3314.5194	3553.9197	3578.4231	3653.0542	3687.8752
NC1=NC(N)=CO1	Nc1nc(N)co1	
InChI=1S/C3H5N3O/c4-2-1-7-3(5)6-2/h1H,4H2,(H2,5,6)	InChI=1S/C3H5N3O/c4-2-1-7-3(5)6-2/h1H,4H2,(H2,5,6)
