12
gdb 1828	6.64396	2.28598	1.71929	0.4437	54.82	-0.2499	0.0033	0.2533	675.5751	0.092521	-356.728392	-356.722478	-356.721534	-356.758258	21.743	
N	-0.0972650998	 1.281677689	 0.0077675085	-0.544749
C	 0.0061870896	 0.0187650583	 0.0005514341	 0.383045
C	-1.176487215	-0.9348093369	 0.0025645744	-0.153462
O	-0.6039396453	-2.2497402582	-0.0075691664	-0.245067
C	 0.7572337734	-2.1666524787	-0.0152251907	 0.47936
N	 1.5848706619	-3.1173093941	-0.0250448606	-0.582316
N	 1.1012211911	-0.8217231115	-0.0103256636	-0.367841
H	 0.8127819462	 1.7435292868	 0.004786385	 0.21712
H	-1.7922942899	-0.8081678928	 0.8975106722	 0.151932
H	-1.8027046264	-0.7989749662	-0.8837722984	 0.151928
H	 1.1016555009	-4.012807744	-0.0268006046	 0.233567
H	 2.0655964532	-0.5343529017	-0.0144904399	 0.276482
113.072	167.5806	361.9775	489.4403	513.4533	537.0488	645.6258	705.475	716.0672	806.3854	853.9043	907.1944	941.6209	1034.944	1038.8062	1100.9757	1116.8927	1199.9242	1273.9681	1358.8623	1367.4973	1427.0884	1502.179	1778.1904	1809.1415	3061.7611	3107.0091	3472.7733	3531.3835	3671.7687
N=C1COC(=N)N1	[NH][C]1CO[C]([NH])N1	
InChI=1S/C3H5N3O/c4-2-1-7-3(5)6-2/h1H2,(H3,4,5,6)	InChI=1S/C3H5N3O/c4-2-1-7-3(5)6-2/h1H2,(H3,4,5,6)
