12
gdb 3614	5.26123	3.89255	2.82625	3.673	54.18	-0.22	-0.0583	0.1616	500.3382	0.089765	-323.229212	-323.224271	-323.223327	-323.257484	19.835	
C	 0.0183457987	 1.6094439486	 0.0114916991	-0.170828
N	 1.4898107895	 1.9397422956	 0.0481914613	-0.224632
C	 1.9915830499	 0.8176539342	-0.2514465596	 0.270331
O	 2.5931229207	-0.0053462639	 0.714648496	-0.263505
C	 1.3285978241	-0.7793143043	 0.478405076	 0.074754
C	 0.0172214627	 0.0589174388	 0.0208980473	-0.098322
C	 1.1326318813	-0.3254855759	-0.8907990574	-0.191029
H	-0.3928881245	 2.0573811081	 0.9207975942	 0.136858
H	-0.5376042451	 2.0041607669	-0.8520615096	 0.11366
H	 1.2960802909	-1.7506241366	 0.9566377895	 0.133224
H	-0.913522878	-0.5032171035	 0.05842102	 0.099674
H	 1.1943994897	-0.7961072179	-1.8620470468	 0.119816
264.3089	392.4009	507.5965	602.0275	613.1731	707.9419	747.0417	777.8074	816.4472	858.0061	911.8154	945.1961	972.7926	984.5839	1021.7713	1050.8036	1085.6202	1145.2335	1173.2887	1184.4198	1256.1248	1291.002	1354.3627	1483.0869	1622.2662	2993.2757	3084.6198	3145.2523	3197.3898	3212.6156
C1N=C2OC3C1C23	C1[N][C]2O[C@H]3[C@@H]1[C@@H]23	
InChI=1S/C5H5NO/c1-2-3-4(2)7-5(3)6-1/h2-4H,1H2	InChI=1S/C5H5NO/c1-2-3-4(2)7-5(3)6-1/h2-4H,1H2/t2-,3+,4-/m0/s1
