12
gdb 453	7.69225	3.61351	2.57546	3.9802	46.25	-0.2457	0.0629	0.3086	491.6466	0.100038	-302.599262	-302.594109	-302.593165	-302.627663	18.931	
O	 0.002600952	-0.0386801977	 0.0035372446	-0.406579
C	-0.0138222064	 1.1709573053	 0.0098256725	 0.43009
N	-1.1110048539	 1.9918308134	-0.2341863527	-0.333872
C	-0.8105898897	 3.3732957269	 0.1110843592	-0.157711
C	 0.7228459109	 3.3950496192	-0.0684093465	-0.157711
N	 1.0607036098	 2.0187337431	 0.262516188	-0.333873
H	-2.0179269303	 1.5961582941	-0.0437597986	 0.252281
H	-1.3139681322	 4.0824069599	-0.5512833507	 0.117117
H	-1.0811368885	 3.6135874308	 1.1495519268	 0.110431
H	 0.9866219841	 3.6533860441	-1.1042834742	 0.110431
H	 1.2068812294	 4.1106376323	 0.6013689544	 0.117117
H	 1.9780081249	 1.6498303985	 0.0681220472	 0.252281
205.3683	232.597	465.0389	528.4369	547.6517	691.4416	717.4677	770.0396	909.1164	935.9498	968.5664	1057.0087	1108.4125	1129.4177	1218.9471	1225.4779	1264.7952	1328.6891	1370.1718	1436.4993	1439.3993	1524.9727	1531.3815	1853.7598	2993.1791	3000.6241	3082.2938	3088.4082	3643.1688	3643.2315
O=C1NCCN1	O=C1NCCN1	
InChI=1S/C3H6N2O/c6-3-4-1-2-5-3/h1-2H2,(H2,4,5,6)	InChI=1S/C3H6N2O/c6-3-4-1-2-5-3/h1-2H2,(H2,4,5,6)
