21
gdb 1567	6.26736	1.16008	1.04503	0.9803	72.02	-0.2504	0.0863	0.3367	1196.148	0.192734	-312.119596	-312.110095	-312.109151	-312.153779	33.142	
C	-0.0347586673	 1.53810352	-0.0698547248	-0.389806
C	 0.0218753603	 0.0102868261	 0.0278399719	-0.169762
C	 0.7210168993	-0.5220773896	 1.2913585121	 0.025937
C	-0.0081976888	-0.1403044022	 2.5863767566	-0.389692
C	 0.8864138268	-2.0391873428	 1.1917458168	-0.052521
O	 1.654944902	-2.4989793908	 2.2836853623	-0.233731
C	 1.8254026853	-3.8940578572	 2.2874835714	-0.226401
H	 0.9697467546	 1.9737295957	-0.0238163126	 0.113999
H	-0.4895671195	 1.8521091955	-1.0145851954	 0.111074
H	-0.6244497452	 1.977612866	 0.7400863528	 0.119671
H	-0.9982907231	-0.3960452844	-0.0164920465	 0.092265
H	 0.5428901649	-0.381375412	-0.855717473	 0.090899
H	 1.7344849238	-0.0976378751	 1.3275416369	 0.078536
H	-1.0494154506	-0.4861976466	 2.5625047371	 0.104245
H	 0.4807958947	-0.602634993	 3.4466295447	 0.131204
H	-0.0198704899	 0.9420365413	 2.7416369423	 0.110299
H	-0.1043123073	-2.5299230125	 1.1893109663	 0.078072
H	 1.3809879798	-2.3073941235	 0.2418652815	 0.078607
H	 0.8620803102	-4.4252631045	 2.3541136644	 0.101507
H	 2.3453403728	-4.2463630767	 1.3818465365	 0.100989
H	 2.4296842971	-4.1498464237	 3.1615900387	 0.124609
68.622	95.8689	104.5046	155.0012	213.1065	233.1099	260.5212	287.1437	336.983	381.8175	434.1105	522.3959	774.6699	832.4778	921.5367	930.1764	978.5498	990.268	1021.7071	1052.3689	1147.9178	1161.5078	1175.4952	1185.9441	1199.5225	1230.5478	1267.02	1296.7144	1313.3686	1377.9145	1381.1992	1405.3793	1410.271	1423.5388	1479.6909	1485.0959	1485.3902	1493.5667	1500.0575	1503.1069	1508.3149	1512.1689	1526.6079	2932.7737	2962.3333	2966.8152	3004.6447	3006.8942	3010.9251	3029.4354	3033.6265	3042.8446	3098.4378	3098.599	3108.8404	3109.9332	3128.8612
CCC(C)COC	CC[C@@H](C)COC	
InChI=1S/C6H14O/c1-4-6(2)5-7-3/h6H,4-5H2,1-3H3	InChI=1S/C6H14O/c1-4-6(2)5-7-3/h6H,4-5H2,1-3H3/t6-/m1/s1
