15
gdb 2970	3.57872	2.45071	1.70249	1.7064	62.09	-0.2582	0.0503	0.3085	761.8139	0.123033	-308.460407	-308.452859	-308.451915	-308.491957	27.293	
C	 0.2234457676	 1.5277854696	 0.044779478	-0.385721
C	-0.0135790453	 0.0038439001	-0.0370108175	-0.194506
C	 0.5757024811	-0.5562707899	-1.2510763589	 0.342721
C	 1.0523135404	-0.9961217928	-2.2630291016	-0.476799
C	 0.4925137223	-0.6672251679	 1.2371139646	 0.105294
C	 1.1449747976	-1.9788744428	 1.2786593362	-0.189529
O	 1.902151285	-0.7689620658	 1.4044969101	-0.231622
H	 1.2936949983	 1.7356410948	 0.1180405557	 0.14609
H	-0.1697802055	 2.0296167448	-0.8422232553	 0.127181
H	-0.2731595449	 1.9416072098	 0.9281438119	 0.114647
H	-1.0985671087	-0.1737497163	-0.0712760374	 0.109953
H	 1.4755168187	-1.3851828438	-3.1558761218	 0.19838
H	-0.0382002823	-0.3312704771	 2.1308251514	 0.092155
H	 1.0784244673	-2.5827626757	 2.1825545479	 0.112542
H	 1.3011437685	-2.524166897	 0.3510198966	 0.129213
81.4714	149.8892	202.1657	228.2257	256.8838	356.2345	433.0508	549.9649	622.6938	642.4778	649.7272	731.2579	850.4623	882.3996	956.9857	1007.757	1020.5243	1078.0736	1112.4213	1146.939	1167.478	1179.3577	1293.5551	1305.5619	1346.7921	1401.4978	1428.9321	1491.7617	1502.0347	1523.6242	2236.8484	3002.0644	3044.753	3083.1708	3093.3331	3119.1381	3135.5332	3187.076	3503.2648
CC(C#C)C1CO1	C[C@@H](C#C)[C@H]1CO1	
InChI=1S/C6H8O/c1-3-5(2)6-4-7-6/h1,5-6H,4H2,2H3	InChI=1S/C6H8O/c1-3-5(2)6-4-7-6/h1,5-6H,4H2,2H3/t5-,6+/m0/s1
