19
gdb 2127	3.28125	2.79398	1.59124	0.1455	74.71	-0.2147	0.0398	0.2545	832.4164	0.171823	-273.817328	-273.809525	-273.808581	-273.8489	28.838	
C	-0.0192443694	 1.5192210823	 0.1173065631	-0.497678
C	 0.0443670941	 0.0278456703	 0.0019276357	 0.237786
C	 0.0277726846	-0.7255909865	-1.1064679507	 0.237791
C	-0.0589525496	-0.2831621334	-2.5341539999	-0.497677
C	 0.0510362638	-2.2045065759	-0.7727527503	-0.284985
C	 0.4265103725	-2.2388330704	 0.726599775	-0.206027
C	 0.0813662395	-0.8270050353	 1.2537031388	-0.28499
H	 0.8543771357	 1.9106982959	 0.6549599021	 0.121008
H	-0.0647525529	 2.0174606459	-0.8541568065	 0.119314
H	-0.8998510261	 1.8312126428	 0.6947723394	 0.121364
H	-0.0915072889	 0.8040120128	-2.6392730852	 0.119313
H	 0.7979442731	-0.6511240973	-3.1136974239	 0.121009
H	-0.9554557207	-0.6929947502	-3.0185022015	 0.121365
H	-0.9369408285	-2.6525406408	-0.9594793883	 0.096716
H	 0.7574274335	-2.766079786	-1.3970785735	 0.092867
H	-0.0803786742	-3.0363242822	 1.2762928071	 0.092167
H	 1.5027008607	-2.4118754976	 0.8281214913	 0.101074
H	 0.8081338593	-0.4630646932	 1.990922528	 0.092867
H	-0.8962514766	-0.8045434811	 1.7591343792	 0.096716
130.2146	148.7566	168.4255	182.3173	285.5261	290.148	366.8061	511.3072	588.5213	595.9213	706.1357	847.8756	883.691	908.5245	922.8342	975.4327	988.9177	1022.2101	1054.9716	1104.4725	1105.3595	1158.8934	1192.1202	1228.0991	1233.643	1262.1974	1326.354	1327.8544	1356.4127	1409.5106	1420.3734	1477.7007	1481.8294	1484.6077	1485.0883	1491.8358	1492.8492	1508.4147	1743.989	2990.2785	2990.3061	3010.8981	3013.6343	3030.7698	3035.3741	3052.8701	3053.1124	3056.0166	3096.1623	3107.224	3114.9414
CC1=C(C)CCC1	CC1=C(C)CCC1	
InChI=1S/C7H12/c1-6-4-3-5-7(6)2/h3-5H2,1-2H3	InChI=1S/C7H12/c1-6-4-3-5-7(6)2/h3-5H2,1-2H3
