15
gdb 2913	6.33354	1.76211	1.51542	2.1429	58.12	-0.2518	-0.0237	0.2282	794.2651	0.125765	-345.665813	-345.659082	-345.658138	-345.697457	23.542	
O	-0.0481383511	-0.0180538555	 0.0389002939	-0.250755
C	 0.086403992	 1.1773649429	 0.041163709	 0.153054
C	 1.4058652861	 1.9105245471	 0.0119724801	-0.07896
C	 1.5040033632	 2.8676960651	-1.2060694444	-0.245656
C	 2.1086202921	 4.1371409669	-0.5909348365	-0.078144
O	 1.5466052946	 4.2031227593	 0.7079341872	-0.233139
C	 1.5437007631	 2.8849305285	 1.2258776559	-0.107401
H	-0.7981720142	 1.8591742316	 0.071739466	 0.077309
H	 2.2060954439	 1.1680039468	 0.0101732787	 0.09762
H	 2.0998772124	 2.4459268772	-2.0177743259	 0.118241
H	 0.5053396453	 3.0902930422	-1.598149428	 0.114825
H	 3.2076077703	 4.0615500519	-0.5434690168	 0.093885
H	 1.845641045	 5.056426117	-1.1198050044	 0.116654
H	 0.7163390221	 2.8101263486	 1.9397588304	 0.11691
H	 2.4780477049	 2.6676855504	 1.7633953846	 0.105555
48.8509	87.2718	250.451	315.1672	344.0058	427.7832	621.6961	723.5299	863.6254	876.0833	923.9379	947.8925	975.6318	981.6359	1022.6546	1105.8825	1118.8889	1157.607	1212.2836	1226.5481	1272.7182	1290.8067	1297.3776	1336.163	1360.5244	1399.6524	1424.4117	1487.0983	1507.2759	1521.9801	1835.2906	2840.59	2970.2152	2997.695	3047.8912	3066.7151	3095.097	3101.3799	3120.0716
O=CC1CCOC1	O=C[C@H]1CCOC1	
InChI=1S/C5H8O2/c6-3-5-1-2-7-4-5/h3,5H,1-2,4H2	InChI=1S/C5H8O2/c6-3-5-1-2-7-4-5/h3,5H,1-2,4H2/t5-/m1/s1
