19
gdb 1339	5.14634	1.60687	1.44815	1.7349	68.2	-0.254	0.0918	0.3458	941.7371	0.169115	-310.918822	-310.910141	-310.909196	-310.951581	31.338	
C	 0.3294682866	 1.4967725935	 0.1604712169	-0.371752
C	-0.3067283116	 0.1364665715	-0.1534728664	-0.218265
C	 0.3364734539	-0.5148668873	-1.3549991751	 0.033159
O	 1.6628462467	-1.0401258646	-1.1927370818	-0.302218
C	 0.6049486357	-1.9555075176	-1.5347706838	 0.394944
C	 0.2644284383	-2.9825304167	-0.4761694091	-0.454972
C	 0.6936919576	-2.5076224225	-2.9432084208	-0.450857
H	 1.3967090657	 1.3797375847	 0.3704168268	 0.134742
H	 0.2278865549	 2.1866691838	-0.6844264882	 0.11417
H	-0.142264791	 1.9618603199	 1.0310704393	 0.111513
H	-0.2264288115	-0.5164284241	 0.7199530758	 0.101936
H	-1.37778783	 0.2629567793	-0.3599529259	 0.098252
H	 0.2184473295	 0.0662389327	-2.2750901477	 0.074831
H	 0.2941119832	-2.5581045192	 0.5279030343	 0.128351
H	-0.7318733923	-3.4036931474	-0.6502542577	 0.118324
H	 0.9841587801	-3.8078539035	-0.512487866	 0.12336
H	 1.4524686416	-3.296162628	-2.9978453778	 0.122534
H	-0.26279147	-2.9424065962	-3.2537602025	 0.117039
H	 0.9667059225	-1.7226002684	-3.6525948304	 0.124911
70.0551	134.312	165.4522	199.4861	209.7101	265.5576	316.9156	368.5549	420.8832	472.8731	522.6951	702.9489	756.561	820.4143	908.1803	931.4871	944.5112	1002.7688	1013.3168	1051.9174	1110.08	1147.7571	1151.977	1166.8173	1263.1462	1292.0108	1343.3378	1364.9362	1406.6292	1409.7477	1417.9306	1466.1095	1472.1545	1476.3031	1487.415	1497.9676	1501.9511	1506.6148	1522.6782	3026.0689	3031.2067	3036.1276	3037.7607	3055.188	3085.4862	3091.4038	3096.8868	3107.3493	3116.5694	3122.2123	3142.5635
CCC1OC1(C)C	CC[C@H]1OC1(C)C	
InChI=1S/C6H12O/c1-4-5-6(2,3)7-5/h5H,4H2,1-3H3	InChI=1S/C6H12O/c1-4-5-6(2,3)7-5/h5H,4H2,1-3H3/t5-/m1/s1
