10
gdb 199	9.43187	3.67479	2.64447	2.938	43.45	-0.2022	0.0448	0.247	453.0651	0.075256	-301.377995	-301.372972	-301.372028	-301.40609	18.316	
O	 0.114461491	 1.350119905	 0.2152030541	-0.433263
C	 0.07332918	 0.0129344505	 0.0032687066	 0.358295
C	 0.0776309623	-0.8015496878	-1.0981976451	-0.213633
N	 0.0184319312	-2.1238248043	-0.6969565349	-0.241259
C	-0.0205120527	-2.1011226968	 0.6089495301	 0.009415
N	 0.0108864053	-0.8149840425	 1.0932893989	-0.289648
H	 0.157457086	 1.7926474026	-0.6379727847	 0.312152
H	 0.119164693	-0.5214360219	-2.1394911247	 0.098799
H	-0.0709681805	-2.9568779431	 1.2645592403	 0.127907
H	-0.0073527155	-0.5110280517	 2.0524576694	 0.271235
228.1702	306.8561	404.6953	492.3325	667.5651	682.0996	687.8804	771.8905	777.8181	927.1976	1032.0743	1093.2241	1132.4462	1168.5125	1282.4077	1298.6012	1398.1257	1494.0201	1538.9209	1634.7212	3245.8257	3256.3179	3665.8119	3846.0995
OC1=CN=CN1	Oc1cnc[nH]1	
InChI=1S/C3H4N2O/c6-3-1-4-2-5-3/h1-2,6H,(H,4,5)	InChI=1S/C3H4N2O/c6-3-1-4-2-5-3/h1-2,6H,(H,4,5)
