13
gdb 993	3.9698	3.17387	1.77495	1.5036	55.75	-0.1911	0.0401	0.2312	667.5396	0.103842	-340.645995	-340.639435	-340.63849	-340.676096	24.742	
N	 0.0837488626	 1.4237069621	 0.1040448242	-0.61922
C	 0.0091687345	 0.0220668681	 0.0150115691	 0.169662
C	-1.0616312099	-0.8186349271	 0.0263051639	-0.080248
O	-0.6481716141	-2.1185745048	-0.0071413732	-0.156785
C	 0.7157884578	-2.101590665	-0.0393050803	-0.080137
C	 1.1765270564	-0.8205514154	-0.0261706781	 0.169344
N	 2.4835128046	-0.3082717307	-0.1136986383	-0.619227
H	 0.7208726329	 1.8002767983	-0.5906821202	 0.248357
H	-0.8186585422	 1.8686038006	-0.0083597178	 0.242144
H	-2.1260094669	-0.658550614	 0.0632678595	 0.117806
H	 1.2029817553	-3.0613429087	-0.0770955891	 0.117815
H	 3.1897202847	-1.0254866267	-0.0050714475	 0.242133
H	 2.6411606743	 0.4116133933	 0.5843777078	 0.248354
135.2989	229.1518	268.816	344.9231	359.3604	461.6642	589.0904	631.7574	640.4712	702.0978	707.2964	748.3748	804.3483	836.1545	885.8723	1066.714	1104.9852	1131.2154	1206.8003	1247.883	1301.9038	1342.5013	1464.6876	1609.1484	1630.3627	1652.4619	1699.7956	3274.3586	3279.8052	3506.2443	3507.7858	3604.5292	3605.6944
NC1=COC=C1N	Nc1cocc1N	
InChI=1S/C4H6N2O/c5-3-1-7-2-4(3)6/h1-2H,5-6H2	InChI=1S/C4H6N2O/c5-3-1-7-2-4(3)6/h1-2H,5-6H2
