12
gdb 1591	3.64822	2.36884	1.60777	3.6266	51.03	-0.2951	-0.0576	0.2375	739.2555	0.087694	-360.538112	-360.530553	-360.529608	-360.570354	25.565	
C	-0.0756098947	 1.4464581044	-0.0018145114	-0.491193
C	 0.0229881988	-0.0519525184	 0.0499951566	 0.372759
O	 0.1235667688	-0.6983334693	 1.0643762224	-0.294367
C	 0.0141058958	-0.8423359873	-1.2936399973	-0.074407
O	 0.1697781218	-2.2038526199	-1.0553221205	-0.405282
C	-1.2359552279	-0.5452445123	-2.0235087663	 0.257563
N	-2.2132122962	-0.2860529948	-2.582998426	-0.314132
H	 0.7332750988	 1.8562084045	-0.6169631895	 0.156627
H	-1.0175930803	 1.7421331786	-0.47521553	 0.182888
H	-0.0195749683	 1.8571685697	 1.0062823104	 0.161621
H	 0.8472633515	-0.4609226749	-1.9055493234	 0.142696
H	 0.1279163318	-2.2946447102	-0.0865499251	 0.305227
53.5764	112.0174	145.2595	247.0599	297.4821	401.734	426.7896	459.3085	554.4003	588.5371	652.4241	789.6486	944.3638	977.6272	1044.4755	1136.912	1195.3138	1246.5052	1343.2891	1391.9483	1429.3883	1461.7694	1471.1763	1823.1095	2353.8393	2988.4918	3045.4929	3108.6286	3162.5831	3640.2574
CC(=O)C(O)C#N	CC(=O)[C@@H](O)C#N	
InChI=1S/C4H5NO2/c1-3(6)4(7)2-5/h4,7H,1H3	InChI=1S/C4H5NO2/c1-3(6)4(7)2-5/h4,7H,1H3/t4-/m0/s1
