12
gdb 2057	5.04747	2.72562	1.82082	1.3859	50.9	-0.2421	-0.0374	0.2046	641.4597	0.090725	-360.53251	-360.52635	-360.525406	-360.563693	21.157	
O	-0.0049515175	 0.0115386809	-0.3822171275	-0.29214
C	-0.0071783037	 1.1486309103	 0.0200942527	 0.328718
C	-1.3251740919	 1.8584656602	 0.3039966953	-0.172442
O	-1.2369003813	 3.0239339813	 1.127847961	-0.221298
C	-0.0383906552	 3.6490934785	 1.2135472271	 0.137339
N	 1.1032327188	 3.2767054704	 0.8264156712	-0.264485
C	 1.2568719816	 1.9655023103	 0.2190139686	-0.262872
H	-1.7625070438	 2.1442463895	-0.6633977442	 0.149293
H	-2.0126383147	 1.1609737204	 0.7881312278	 0.156046
H	-0.1670457342	 4.6053801931	 1.7163540215	 0.134701
H	 1.9518254493	 1.3661140133	 0.8209269986	 0.154902
H	 1.7459087225	 2.0710393218	-0.7592587421	 0.152237
46.5031	71.0993	425.3406	441.4133	476.9383	502.2166	544.338	737.2256	794.0973	901.4663	965.2481	987.594	1016.2969	1053.812	1167.0783	1223.9385	1237.3327	1265.8699	1330.812	1368.5369	1412.0901	1437.3132	1468.574	1754.1938	1830.4157	3015.1103	3022.0105	3050.7586	3109.1922	3167.0714
O=C1COC=NC1	O=C1COC=NC1	
InChI=1S/C4H5NO2/c6-4-1-5-3-7-2-4/h3H,1-2H2	InChI=1S/C4H5NO2/c6-4-1-5-3-7-2-4/h3H,1-2H2
