14
gdb 3720	7.27666	1.94758	1.64976	3.0213	58.19	-0.2552	0.0145	0.2698	752.8529	0.116214	-320.793141	-320.786681	-320.785737	-320.82436	22.751	
C	 0.0892969845	 1.5686054091	 0.1089359547	-0.368519
C	 0.0194858437	 0.0411920847	-0.0339438574	-0.301617
C	 0.6880059437	-0.4480788381	-1.279353565	 0.386333
N	 0.4778334685	-0.0165456948	-2.513254028	-0.311328
C	 1.3201462147	-0.78359891	-3.2584956044	 0.026467
N	 2.0396721746	-1.660145431	-2.5788387599	-0.218136
N	 1.6190992289	-1.4271054534	-1.3104670355	-0.241239
H	 1.1251869604	 1.9082180275	 0.2011143544	 0.12357
H	-0.344775786	 2.0490797161	-0.7706392716	 0.151543
H	-0.4599258571	 1.8966859784	 0.9958487768	 0.115469
H	 0.4733898212	-0.4473769897	 0.8360082722	 0.102813
H	-1.0305785068	-0.2748054302	-0.0550547045	 0.135243
H	 1.4060291693	-0.6929744999	-4.3311427633	 0.123811
H	 2.0044684405	-1.9626792584	-0.5498255186	 0.275592
34.1649	172.2229	218.4345	331.8701	405.7793	560.5886	660.189	698.7113	743.3454	797.7082	913.0188	972.2541	987.0828	1052.56	1073.4408	1094.4389	1130.8931	1216.2069	1249.1167	1302.1738	1309.8851	1367.5076	1406.9837	1421.9921	1476.687	1493.5628	1500.2576	1512.5424	1587.0417	3032.1174	3047.4083	3067.4456	3117.3138	3136.4672	3259.6456	3660.8604
CCC1=NC=NN1	CCc1ncn[nH]1	
InChI=1S/C4H7N3/c1-2-4-5-3-6-7-4/h3H,2H2,1H3,(H,5,6,7)	InChI=1S/C4H7N3/c1-2-4-5-3-6-7-4/h3H,2H2,1H3,(H,5,6,7)
