12
gdb 4285	4.27657	1.90185	1.31642	4.7563	61.03	-0.2269	-0.0327	0.1941	839.4499	0.085416	-414.689462	-414.683046	-414.682101	-414.720075	24.013	
O	 0.0547466311	 1.3306090173	 0.0077579059	-0.40397
C	-0.0518362935	-0.0010464521	 0.0012375838	 0.475876
C	-1.2006880684	-0.6887580147	 0.0037507919	-0.293352
C	-1.1627351182	-2.1426907363	-0.0042630652	 0.344617
N	-2.2238493102	-2.8528879945	-0.0021989814	-0.527218
N	 0.1381772063	-2.7323642176	-0.0143228496	-0.298768
C	 1.153833901	-1.9848235146	-0.0158266047	 0.12287
O	 1.1711480169	-0.61156744	-0.0086072242	-0.237283
H	 0.9911857725	 1.5655234423	 0.004040067	 0.313915
H	-2.1481308639	-0.1699401125	 0.0116458655	 0.133182
H	-1.9603152826	-3.8398332998	-0.0088120889	 0.219213
H	 2.1707007489	-2.3647296075	-0.0232489501	 0.150917
128.2615	193.9144	307.8986	362.5559	433.5092	464.703	543.9176	573.1394	662.7023	739.4653	797.0213	856.6646	902.5956	908.0028	934.4844	955.9996	1064.4446	1147.1451	1193.0028	1283.4616	1326.3922	1411.7779	1421.9144	1678.5422	1707.9835	1777.6085	3196.0955	3245.7963	3469.697	3804.5523
OC1=CC(=N)N=CO1	O[C@H]1C=C([NH])N=CO1	
InChI=1S/C4H4N2O2/c5-3-1-4(7)8-2-6-3/h1-2,5,7H	InChI=1S/C4H5N2O2/c5-3-1-4(7)8-2-6-3/h1-2,4-5,7H/t4-/m1/s1
