19
gdb 4056	5.30105	1.19361	1.01654	0.9579	75.11	-0.2366	0.0147	0.2513	1165.7622	0.165536	-365.049555	-365.041332	-365.040388	-365.082059	31.286	
C	-0.2565396128	 1.4661813541	 0.0227105308	-0.406467
C	 0.1112557574	-0.0144883386	 0.0540306471	 0.04071
C	 0.859853618	-0.5179959219	-1.1997603215	-0.220784
C	 1.4847437415	-1.8604799352	-0.7712081582	-0.298245
C	 1.6502866933	-1.727124009	 0.729487477	 0.405961
C	 1.0613268049	-0.4174847239	 1.2026116061	-0.290616
N	 2.1592400138	-2.5665300628	 1.5380995071	-0.231441
O	 2.6284531519	-3.7065342621	 0.8518282432	-0.398439
H	 0.6402169592	 2.0894959644	-0.0751608754	 0.113086
H	-0.9140972982	 1.6937752031	-0.8230368706	 0.113767
H	-0.775283711	 1.7701923285	 0.9380077525	 0.114748
H	-0.8096716288	-0.6058288887	 0.1568717955	 0.077198
H	 0.2086629635	-0.6074552349	-2.073729671	 0.097538
H	 1.6503994273	 0.1983174084	-1.4580573759	 0.098577
H	 0.821448589	-2.7086129017	-0.9820251001	 0.126568
H	 2.4343341835	-2.0902397356	-1.2628708425	 0.125899
H	 1.8587624626	 0.334568699	 1.2952594526	 0.111561
H	 0.5800334036	-0.5002506782	 2.1797731456	 0.116674
H	 2.9705324712	-4.246754995	 1.5716334978	 0.303703
71.7979	160.2459	202.77	240.7628	293.8423	308.963	381.5882	410.3008	464.8095	505.7709	568.1721	666.7637	769.9392	830.9945	855.5043	913.5598	925.5872	954.868	975.4289	998.8619	1037.3702	1098.069	1143.3997	1162.4898	1209.721	1227.2151	1252.5758	1279.6182	1305.4658	1317.9285	1347.0719	1385.1167	1400.0699	1412.256	1464.6707	1472.1856	1496.5203	1498.5116	1503.4123	1755.8761	2997.9903	3010.06	3024.6086	3030.4496	3038.4093	3084.4794	3090.3092	3094.4459	3097.084	3102.657	3821.3031
CC1CCC(C1)=NO	C[C@H]1CCC(=NO)C1	
InChI=1S/C6H11NO/c1-5-2-3-6(4-5)7-8/h5,8H,2-4H2,1H3	InChI=1S/C6H11NO/c1-5-2-3-6(4-5)7-8/h5,8H,2-4H2,1H3/t5-/m0/s1
