12
gdb 4687	6.39015	1.38778	1.14831	3.6381	65.63	-0.2626	-0.0542	0.2084	962.849	0.084757	-377.576096	-377.569205	-377.56826	-377.607603	24.037	
C	 0.0010187327	 1.4319437371	 0.1339526345	-0.494593
C	-0.0170777391	-0.0406809644	-0.0480307367	 0.394219
N	-0.1439536282	-0.7185319507	-1.1520159629	-0.285292
C	-0.0960663795	-2.0395619894	-0.7640785919	-0.178376
C	 0.06095275	-2.1032563318	 0.5874082057	 0.221579
O	 0.1129674825	-0.8126567541	 1.0571077229	-0.193075
C	 0.1696041293	-3.1663835326	 1.50413796	 0.22378
N	 0.2569412418	-4.0568935434	 2.2400930744	-0.329166
H	 0.9424570101	 1.7561334889	 0.5883454724	 0.15959
H	-0.1133051397	 1.9097327557	-0.8387122862	 0.167129
H	-0.8120876889	 1.7524387858	 0.7927658072	 0.159585
H	-0.175996821	-2.8534528609	-1.4666655393	 0.15462
94.6825	143.0146	155.0047	273.0437	346.8527	503.6443	555.8029	570.0354	676.888	695.4388	712.1299	892.6559	976.9162	989.2537	1036.3074	1067.4823	1176.0283	1220.7117	1271.8531	1349.4886	1412.2843	1474.2188	1476.0754	1573.0974	1615.636	2345.7258	3050.7055	3108.2287	3165.3661	3275.2548
CC1=NC=C(O1)C#N	Cc1ncc(o1)C#N	
InChI=1S/C5H4N2O/c1-4-7-3-5(2-6)8-4/h3H,1H3	InChI=1S/C5H4N2O/c1-4-7-3-5(2-6)8-4/h3H,1H3
