10
gdb 3916	8.4623	1.98212	1.60596	1.0032	50.24	-0.2698	-0.0686	0.2013	681.5836	0.067405	-359.312853	-359.307358	-359.306414	-359.342422	18.999	
O	-0.0492551029	-0.0277075061	-0.0011648221	-0.265374
C	-0.0026824805	 1.1809531402	 0.0079358089	 0.067509
C	 1.2401815599	 1.9549292061	-0.0001631187	 0.049903
C	 2.5241484039	 1.4808482027	-0.0183229882	 0.037057
O	 3.3931069086	 2.4835629156	-0.0202764422	-0.150516
N	 2.6955956331	 3.7019641905	-0.0029658682	-0.121212
C	 1.4324188055	 3.369510679	 0.0084286129	-0.037736
H	-0.9291719664	 1.7945412488	 0.0226834214	 0.081734
H	 2.9310339264	 0.481728126	-0.0305894017	 0.18716
H	 0.6850889123	 4.1509219274	 0.0228308379	 0.151474
138.8815	191.4207	265.5605	486.5539	613.9713	652.805	767.3084	861.1074	892.1815	917.7559	932.3692	1035.1421	1040.0685	1164.7304	1190.615	1310.5644	1356.1124	1452.4967	1484.5202	1616.9689	1796.3876	2899.8572	3244.0931	3275.8294
O=CC1=CON=C1	O=Cc1conc1	
InChI=1S/C4H3NO2/c6-2-4-1-5-7-3-4/h1-3H	InChI=1S/C4H3NO2/c6-2-4-1-5-7-3-4/h1-3H
