12
gdb 4612	5.83284	1.61803	1.26906	6.6882	60.78	-0.2277	-0.0758	0.1519	870.8648	0.084795	-414.698471	-414.691766	-414.690821	-414.729584	24.623	
N	 0.0215191295	 1.4466268022	 0.1438781819	-0.592779
C	-0.0194031735	 0.0478286816	 0.0305924616	 0.156125
C	-1.1457463392	-0.7039923151	 0.0059542055	 0.040016
O	-1.1096634914	-2.0448087704	-0.0033828657	-0.201488
C	 0.1125013008	-2.7548702072	-0.0317811091	 0.443528
O	 0.0492147871	-3.9474885793	-0.0687310485	-0.332958
N	 1.2768546156	-2.0028553406	-0.0108823174	-0.312155
C	 1.1995670025	-0.7109618881	 0.0277152805	 0.027779
H	 0.7174905492	 1.8740668622	-0.4546737005	 0.255819
H	-0.8743224461	 1.8900892349	-0.0135227778	 0.251619
H	-2.1585852319	-0.3145578596	 0.0091188637	 0.136454
H	 2.1450203074	-0.1641164707	 0.0590119757	 0.12804
71.3836	187.278	328.1417	337.6647	364.474	498.2813	502.4173	512.1209	645.2246	709.2171	764.7103	799.2964	799.9004	885.333	938.9202	1004.5445	1049.358	1130.4697	1244.6142	1316.2834	1399.2428	1460.1152	1574.184	1656.0897	1720.5825	1866.847	3105.5185	3190.4419	3533.8277	3624.419
NC1=COC(=O)N=C1	Nc1coc(=O)nc1	
InChI=1S/C4H4N2O2/c5-3-1-6-4(7)8-2-3/h1-2H,5H2	InChI=1S/C4H4N2O2/c5-3-1-6-4(7)8-2-3/h1-2H,5H2
