15
gdb 3475	4.62415	2.90894	2.60583	1.9418	60.09	-0.2255	0.0852	0.3107	606.9366	0.125723	-308.451299	-308.445497	-308.444553	-308.480542	22.811	
C	-0.0384370979	 1.569670248	-0.0572308854	-0.531668
C	 0.0080667064	 0.0794083181	 0.0105745278	 0.292561
C	 0.5833604523	-1.0059858485	-0.903976667	-0.161859
C	 1.3627108927	-1.6401402061	 0.2463739292	-0.229422
C	 0.2965958596	-0.9797897002	 1.1561693044	 0.026875
O	-0.9276481443	-1.6976201409	 0.8336557867	-0.294771
C	-0.8844607709	-1.0305572594	-0.426601488	 0.04711
H	 0.9399343944	 2.0154379091	 0.1565560313	 0.122767
H	-0.3364076484	 1.8980256605	-1.0589528603	 0.125706
H	-0.7596814959	 1.982400135	 0.6571233896	 0.128523
H	 0.853717821	-0.9236082825	-1.9495169332	 0.086982
H	 1.441487782	-2.7303070129	 0.3064947352	 0.099355
H	 2.344461817	-1.1751072464	 0.3688877781	 0.100738
H	 0.4345775567	-0.8135925076	 2.2230011836	 0.083765
H	-1.7507109149	-1.0665869563	-1.0747734218	 0.103339
206.8296	217.3713	270.7548	449.6265	545.2832	607.435	745.0347	762.9992	815.5794	861.3482	884.7621	919.9249	928.3285	970.786	991.8635	1024.9005	1036.0763	1080.6338	1115.0696	1138.4145	1158.7043	1177.9549	1223.1839	1229.2226	1270.623	1317.5606	1412.2325	1462.3429	1484.3045	1488.4362	1498.308	3022.1254	3047.2858	3082.462	3093.0063	3109.3652	3138.8769	3192.0478	3205.1356
CC12C3CC1OC23	C[C@@]12[C@H]3C[C@@H]1O[C@@H]23	
InChI=1S/C6H8O/c1-6-3-2-4(6)7-5(3)6/h3-5H,2H2,1H3	InChI=1S/C6H8O/c1-6-3-2-4(6)7-5(3)6/h3-5H,2H2,1H3/t3-,4-,5+,6+/m0/s1
