12
gdb 972	3.67496	3.54982	1.82623	0.4735	52.43	-0.2113	0.0055	0.2168	648.8899	0.09071	-360.551444	-360.545112	-360.544168	-360.581576	22.645	
C	 0.1433432182	 1.5291474784	 0.075288425	-0.501421
C	-0.0338137654	 0.0593078699	 0.0319142831	 0.239953
C	-1.0829399419	-0.7775609009	-0.1809249555	 0.249684
O	-2.3658845442	-0.4432471532	-0.4311980398	-0.432293
N	-0.6765853743	-2.0952584888	-0.1099196473	-0.336891
C	 0.5924678099	-2.011795132	 0.141070476	 0.072727
O	 1.0631555735	-0.7586352331	 0.2425233269	-0.174036
H	 0.8508417565	 1.8797629103	-0.6852271189	 0.137706
H	-0.8211870168	 2.0070493839	-0.1115483348	 0.150697
H	 0.5096605232	 1.8701778804	 1.0506445146	 0.137688
H	-2.8523798683	-1.2695572502	-0.5339657083	 0.305893
H	 1.2980667996	-2.8163000447	 0.274843509	 0.150294
127.0703	218.1965	246.9783	324.2916	339.4233	456.1061	637.4752	649.8221	726.5588	750.9542	819.488	954.6692	967.9895	1067.9709	1090.3668	1169.4256	1212.4921	1314.3002	1326.4296	1402.7172	1437.7235	1474.5573	1492.8633	1553.9845	1735.9511	3025.8943	3074.2721	3128.6571	3277.0067	3813.5629
CC1=C(O)N=CO1	Cc1c(O)nco1	
InChI=1S/C4H5NO2/c1-3-4(6)5-2-7-3/h2,6H,1H3	InChI=1S/C4H5NO2/c1-3-4(6)5-2-7-3/h2,6H,1H3
