13
gdb 4685	6.53493	1.33041	1.11306	4.2596	69.5	-0.2437	-0.0324	0.2113	998.6408	0.097519	-357.709717	-357.702586	-357.701642	-357.741496	25.246	
C	-0.0013959797	 1.4766130075	 0.057895555	-0.503126
C	-0.0035728971	-0.012066929	-0.0265032813	 0.356403
N	-0.0614668846	-0.723018616	-1.1405116529	-0.279611
C	-0.0389952717	-2.0318866582	-0.7582167267	-0.160908
C	 0.0338197756	-2.1336032059	 0.6156390709	 0.204112
N	 0.0557244294	-0.8217867687	 1.0654026706	-0.348833
C	 0.0813994685	-3.2435336303	 1.4817559225	 0.200787
N	 0.1210425624	-4.1502765164	 2.2033015166	-0.342916
H	 0.9102299152	 1.8526741696	 0.5350937055	 0.143704
H	-0.057368417	 1.8818809649	-0.9525824273	 0.168053
H	-0.8566240934	 1.8498058944	 0.6319067286	 0.143626
H	-0.0754794916	-2.8405926559	-1.4714531712	 0.137812
H	 0.1064809241	-0.5371780161	 2.0302882496	 0.280896
76.8204	138.2129	151.495	275.3406	346.4027	513.3476	547.9331	548.412	570.3242	673.2761	697.413	708.8927	878.5635	989.6201	1009.8444	1046.7706	1064.2118	1186.7675	1225.254	1303.317	1373.4402	1412.086	1425.5203	1483.3519	1497.2829	1518.8072	1600.4455	2337.4085	3038.3552	3091.337	3156.6659	3263.2776	3655.8196
CC1=NC=C(N1)C#N	Cc1ncc([nH]1)C#N	
InChI=1S/C5H5N3/c1-4-7-3-5(2-6)8-4/h3H,1H3,(H,7,8)	InChI=1S/C5H5N3/c1-4-7-3-5(2-6)8-4/h3H,1H3,(H,7,8)
