17
gdb 3174	5.34611	2.31281	1.9528	1.4498	64.06	-0.2241	0.0877	0.3118	717.7541	0.149675	-309.711101	-309.704582	-309.703638	-309.742434	24.899	
C	 0.0453280045	 1.5337091372	-0.0116981759	-0.331255
C	 1.2885748274	 0.6574757965	-0.0721915797	-0.328334
C	-0.079319553	 0.0457358488	 0.0516276025	 0.471911
C	-0.5267117604	-0.7375784149	 1.2905940019	-0.307163
C	-1.5079540404	-1.7745068279	 0.7078726495	-0.210019
C	-1.0064616209	-1.8970859962	-0.7346607798	-0.081027
O	-0.6261320759	-0.576504994	-1.0961756404	-0.287236
H	-0.1429545938	 2.1091336649	 0.8889363561	 0.109028
H	-0.2688830195	 2.0124829431	-0.9326458668	 0.121538
H	 1.7826449969	 0.5677386075	-1.03319274	 0.118673
H	 1.9501207905	 0.6348478176	 0.7884910204	 0.105822
H	 0.3280463894	-1.2346587966	 1.7609731759	 0.10682
H	-0.991326036	-0.0964063115	 2.0438958724	 0.107891
H	-1.5043700135	-2.7243250942	 1.2481123389	 0.099471
H	-2.5294090702	-1.3820757728	 0.7105212535	 0.110134
H	-0.1462877131	-2.5844222261	-0.7930178815	 0.087558
H	-1.7655082819	-2.2335335015	-1.4457883871	 0.106187
22.275	230.7365	304.1204	312.5434	464.9079	507.6937	606.5619	754.8811	768.6266	834.4266	874.3698	898.8641	907.7735	927.7109	947.3187	971.619	1020.1441	1045.222	1071.0372	1087.3888	1129.0081	1189.2052	1194.1783	1204.4032	1241.0563	1268.1424	1304.43	1338.3139	1367.7136	1391.3338	1450.113	1485.6806	1496.4185	1500.661	1522.1972	2967.7811	3047.8016	3056.631	3091.8627	3093.7399	3113.3311	3123.3742	3128.619	3210.3775	3224.9817
C1CC11CCCO1	C1CC21CCCO2	
InChI=1S/C6H10O/c1-2-6(3-4-6)7-5-1/h1-5H2	InChI=1S/C6H10O/c1-2-6(3-4-6)7-5-1/h1-5H2
