14
gdb 2775	5.01284	2.06468	1.57191	0.7173	56.55	-0.2558	0.0172	0.273	779.0213	0.112496	-361.696319	-361.688763	-361.687818	-361.728452	25.46	
C	-0.0309314982	 1.3889011221	 0.0640022987	-0.33964
N	-0.0610535133	-0.0577725497	 0.2352394998	-0.336582
C	-1.1235989443	-0.6807441341	 0.0266055767	 0.434126
O	-2.382017042	-0.2560969057	-0.3635999212	-0.265939
C	-2.8407830768	-1.6398058945	-0.5083762311	-0.092395
C	-1.4882005738	-2.1546020863	 0.0226847312	-0.016225
O	-0.778206878	-2.9707552746	-0.8730182427	-0.428337
H	 0.821820847	 1.6541318548	-0.5693479357	 0.128549
H	-0.9446674378	 1.8034497292	-0.3770023648	 0.129671
H	 0.1335873771	 1.8633224374	 1.0379576779	 0.13165
H	-3.7240348438	-1.8261550811	 0.1053565025	 0.122553
H	-3.0223100679	-1.8893379693	-1.5557802767	 0.132769
H	-1.5442911068	-2.5960493589	 1.026901875	 0.099293
H	 0.1575021385	-2.7675940193	-0.7592163398	 0.300508
84.9952	101.6014	144.5264	188.6856	222.885	325.4142	427.9247	541.0033	679.1329	736.5951	848.4175	922.5045	964.4639	1043.3174	1065.1424	1114.39	1132.33	1150.0912	1173.9338	1197.0398	1210.4014	1323.6407	1355.9795	1406.386	1440.0231	1492.5089	1497.6664	1506.8264	1851.4904	3015.386	3019.7147	3073.5999	3085.2703	3093.2267	3140.606	3803.0405
CN=C1OCC1O	CN=C1OC[C@H]1O	
InChI=1S/C4H7NO2/c1-5-4-3(6)2-7-4/h3,6H,2H2,1H3	InChI=1S/C4H7NO2/c1-5-4-3(6)2-7-4/h3,6H,2H2,1H3/t3-/m1/s1
