12
gdb 2566	4.7288	2.23463	1.70378	1.8095	57.87	-0.2607	-0.0465	0.2142	708.9615	0.088496	-323.320574	-323.31376	-323.312816	-323.351197	24.471	
O	-0.1816915616	 0.3324264424	 0.7427515251	-0.266336
C	 0.1231042487	 1.0810468156	-0.1534914702	 0.095411
C	 1.3523619778	 1.9452772791	-0.1005327197	 0.029515
C	 1.5193044518	 2.700908345	 1.2030466221	-0.243347
N	 2.3612266845	 1.5598150405	 0.9153726365	-0.326353
C	 1.8065481734	 2.49438807	-1.3470676494	 0.254752
C	 2.1295387419	 2.9439697858	-2.4137862353	-0.388217
H	-0.4827234532	 1.1779443073	-1.0754150665	 0.103853
H	 2.0081055412	 3.6689857237	 1.1563357185	 0.143098
H	 0.7154431742	 2.5990106739	 1.927045442	 0.14033
H	 1.9798935292	 0.7408084421	 1.3931937091	 0.255563
H	 2.4368471321	 3.3418494246	-3.3494390321	 0.20173
130.2396	157.2292	216.6287	275.8709	328.5068	509.4723	538.1227	552.0166	612.6332	671.8386	749.3229	818.2703	920.6407	970.8959	1011.7115	1022.3592	1118.4118	1139.5271	1249.563	1317.4346	1343.9036	1417.5474	1493.8824	1804.4158	2243.4998	2949.309	3115.3824	3215.631	3449.9188	3501.0979
O=CC1(CN1)C#C	O=C[C@]1(CN1)C#C	
InChI=1S/C5H5NO/c1-2-5(4-7)3-6-5/h1,4,6H,3H2	InChI=1S/C5H5NO/c1-2-5(4-7)3-6-5/h1,4,6H,3H2/t5-/m1/s1
