13
gdb 1003	4.11426	3.43358	1.89409	3.115	56.61	-0.1889	0.0283	0.2172	643.3484	0.102517	-340.654874	-340.648235	-340.647291	-340.686744	23.322	
C	 0.0683071404	 1.4423257078	 0.0125571014	-0.342632
N	 0.0549822804	-0.0024268022	-0.0160941318	-0.088186
C	 0.0965334283	-0.8285941535	-1.1375456386	-0.114264
C	 0.0648469465	-2.0912087178	-0.7015298244	-0.053313
O	 0.0035877959	-2.0995545484	 0.6815228559	-0.219682
C	-0.0028014968	-0.7896686367	 1.1180783231	 0.469396
N	-0.0516885665	-0.3772896353	 2.3176522357	-0.616012
H	 0.9853936256	 1.8390563743	-0.4369344231	 0.131562
H	-0.7956543929	 1.8569326235	-0.518593539	 0.131551
H	 0.0233725994	 1.7435256614	 1.059713356	 0.182911
H	 0.1446517386	-0.4319683232	-2.1372606273	 0.145487
H	 0.0771576019	-3.0467267207	-1.1935861424	 0.148719
H	-0.0881414907	-1.1562855893	 2.9680119244	 0.224463
18.6451	135.5921	228.5207	301.6549	486.1607	570.7425	655.2031	670.304	695.917	740.7722	778.2095	786.8509	907.2151	992.8165	1043.006	1069.3635	1154.7173	1158.017	1220.6545	1284.3261	1336.2583	1430.988	1477.794	1496.0587	1511.1126	1663.0731	1774.3756	3026.3196	3080.7907	3154.2034	3282.3024	3314.422	3553.3274
CN1C=COC1=N	CN1C=CO[C@@H]1[NH]	
InChI=1S/C4H6N2O/c1-6-2-3-7-4(6)5/h2-3,5H,1H3	InChI=1S/C4H7N2O/c1-6-2-3-7-4(6)5/h2-5H,1H3/t4-/m1/s1
