16
gdb 810	4.42854	2.04144	1.49562	0.8203	64.68	-0.24	0.0099	0.2499	827.5468	0.135736	-325.729906	-325.722384	-325.72144	-325.76154	27.399	
C	 0.033981775	 1.5945507437	-0.0051618205	-0.398881
C	 0.0477910272	 0.0720706176	 0.0361418269	-0.048103
C	 0.6440055285	-0.7204569961	-1.1789553687	-0.234112
C	 1.4978006227	-1.5848048588	-0.1980758939	-0.314859
C	 1.0904839694	-0.6210709076	 0.8973640847	 0.410426
N	 1.4956096819	-0.3325885071	 2.0611631334	-0.239825
O	 2.5399483796	-1.1914509645	 2.4616257241	-0.395187
H	 1.0255178996	 1.9874693159	-0.252481599	 0.116769
H	-0.674968433	 1.9579167315	-0.7567042421	 0.113175
H	-0.2554614079	 2.0079115126	 0.9654718655	 0.131163
H	-0.9544574466	-0.303035514	 0.2801594356	 0.092107
H	-0.0715058739	-1.2561330444	-1.8050754167	 0.102664
H	 1.2628247222	-0.0837895276	-1.8164001866	 0.108702
H	 1.1093258754	-2.5965225236	-0.0428504633	 0.124182
H	 2.5709623345	-1.6587203614	-0.3899998042	 0.127008
H	 2.7558654155	-0.8507054962	 3.3360998148	 0.304771
76.2653	153.0779	193.7848	236.1688	294.4949	361.1316	433.5881	487.0369	555.8284	663.7254	755.4102	803.0992	876.8989	925.9576	935.2621	972.8785	1024.6468	1059.0777	1130.2014	1151.0793	1177.4894	1212.1018	1234.6	1266.3949	1274.6404	1346.6092	1402.0557	1409.3997	1460.5661	1490.3823	1491.6458	1498.1976	1782.2205	3022.2115	3033.5669	3055.7603	3069.1854	3102.4571	3104.5357	3111.2503	3127.4374	3819.0857
CC1CCC1=NO	C[C@H]1CCC1=NO	
InChI=1S/C5H9NO/c1-4-2-3-5(4)6-7/h4,7H,2-3H2,1H3	InChI=1S/C5H9NO/c1-4-2-3-5(4)6-7/h4,7H,2-3H2,1H3/t4-/m0/s1
