12
gdb 1462	9.26855	1.34536	1.18348	1.4382	50.12	-0.2785	-0.0235	0.255	924.4359	0.088035	-397.667072	-397.659391	-397.658446	-397.699608	25.013	
O	 0.0683452674	 1.3515052674	 0.0087052518	-0.393077
C	-0.0560182333	-0.0444738595	 0.0024045972	-0.191298
C	-1.5285009819	-0.4006324106	 0.0142105269	 0.454922
O	-2.4525124911	 0.3563478563	 0.0271548588	-0.310709
O	-1.6339253515	-1.7725516237	 0.0079914675	-0.209816
C	-2.8925714107	-2.3226491634	 0.0173809586	 0.117902
N	-2.9853480361	-3.5762973897	 0.0113302229	-0.418296
H	 1.0054237903	 1.5665316589	-0.0019451961	 0.299589
H	 0.3871660719	-0.5192439375	-0.8874920624	 0.131807
H	 0.4035391543	-0.5285945441	 0.8789031748	 0.131803
H	-3.6824982077	-1.5715961922	 0.0294304842	 0.145881
H	-3.9671994816	-3.8490703118	 0.0196198658	 0.241292
70.1653	112.0247	123.0104	172.2621	205.0265	313.941	411.0258	531.828	571.5237	720.0724	853.0686	934.1333	1013.7615	1034.4589	1072.2466	1134.6856	1171.9382	1246.2169	1248.1088	1265.9053	1390.1138	1457.5061	1492.6496	1748.123	1873.129	2979.8154	3005.8669	3140.778	3507.6809	3841.6302
OCC(=O)OC=N	OCC(=O)O[CH][NH]	
InChI=1S/C3H5NO3/c4-2-7-3(6)1-5/h2,4-5H,1H2	InChI=1S/C3H5NO3/c4-2-7-3(6)1-5/h2,4-5H,1H2
