18
gdb 4534	3.66709	1.67141	1.16735	1.6977	77.14	-0.171	0.0554	0.2264	1042.3979	0.154178	-344.018059	-344.009165	-344.008221	-344.051364	32.135	
C	-0.0508963801	 1.4485623066	 0.0262045271	-0.330854
N	 0.0526318551	 0.0090081765	 0.0035111259	 0.022481
C	-0.0288088072	-0.7819295239	-1.1097121441	-0.187262
C	-0.0216629206	-2.1066317787	-0.7268208591	 0.227819
C	-0.0822039302	-3.3120355109	-1.613248463	-0.512672
C	 0.0650582594	-2.1134730637	 0.6999190637	 0.13962
N	 0.0344611902	-3.2769615136	 1.4976482427	-0.606603
C	 0.1073466927	-0.8016514818	 1.1213365028	-0.179245
H	 0.6445297519	 1.8665360371	 0.7608266814	 0.132658
H	 0.2124080103	 1.8458328048	-0.9568078728	 0.135062
H	-1.0643062506	 1.786825747	 0.2779032267	 0.131309
H	-0.087219163	-0.342863641	-2.0941368676	 0.106081
H	 0.8278127199	-3.9249727694	-1.5488854644	 0.110167
H	-0.9229371562	-3.9661225537	-1.3511039814	 0.127293
H	-0.2003224826	-3.0241605741	-2.6620010804	 0.11716
H	 0.5888454388	-4.0250491851	 1.097623126	 0.236558
H	 0.3657584136	-3.1048458643	 2.4387520287	 0.233879
H	 0.1666735285	-0.377128682	 2.1111296278	 0.096548
77.865	123.9032	146.2369	183.799	232.7201	241.3188	285.4711	319.5712	482.9604	595.4152	603.0399	613.0396	620.8993	683.42	734.7622	789.0658	810.6316	1003.0922	1030.3732	1063.4944	1084.2843	1111.1996	1148.1001	1196.1247	1212.0822	1268.7488	1395.4476	1414.5227	1433.0273	1440.2035	1468.3556	1482.5466	1485.915	1503.5621	1520.7169	1584.697	1629.7679	1658.6253	3004.0206	3015.55	3051.2064	3078.933	3101.0433	3123.4447	3244.855	3252.3848	3518.1875	3607.4855
CN1C=C(C)C(N)=C1	Cn1cc(C)c(N)c1	
InChI=1S/C6H10N2/c1-5-3-8(2)4-6(5)7/h3-4H,7H2,1-2H3	InChI=1S/C6H10N2/c1-5-3-8(2)4-6(5)7/h3-4H,7H2,1-2H3
