14
gdb 3395	4.60945	2.50717	2.19717	3.7781	57.48	-0.2446	0.0088	0.2534	648.859	0.114166	-324.57086	-324.564641	-324.563697	-324.600734	23.542	
C	 0.0545817513	 1.5542796268	 0.0653109416	-0.420762
C	 0.1027320352	 0.0431357624	 0.0559417082	-0.006909
C	 1.3258710382	-0.7852103154	-0.2049778243	-0.018922
N	 2.5423097772	-0.2059574515	 0.3712705156	-0.341124
C	 1.9798287061	-0.1545555388	 1.6632107609	 0.416839
O	 2.4032162835	 0.2755257816	 2.697794122	-0.341529
C	 0.6965484472	-0.8184114746	 1.1815129077	-0.243114
H	 0.9797552577	 1.9925632734	 0.4482818008	 0.129781
H	-0.1103263954	 1.9405724423	-0.9462789923	 0.121889
H	-0.7643774771	 1.9100629517	 0.6980815735	 0.132614
H	-0.8000120303	-0.4201888829	-0.3418493096	 0.100456
H	 1.3943125377	-1.5885470469	-0.9270197134	 0.113027
H	 3.05568967	 0.5661760588	-0.0389048949	 0.241634
H	 0.1397435288	-1.6029364069	 1.6736627842	 0.11612
144.3168	191.5679	260.7742	370.9442	458.886	527.9501	631.4619	716.2006	739.4262	786.0271	835.9245	870.8441	910.2168	983.2906	1012.8859	1053.053	1056.7178	1097.0794	1121.9857	1139.8728	1199.6104	1272.9469	1318.4297	1332.3569	1412.3692	1429.8616	1490.9261	1500.7095	1897.1997	3038.7833	3101.6211	3110.9813	3126.3334	3199.629	3225.2283	3546.6422
CC1C2NC(=O)C12	C[C@H]1[C@H]2NC(=O)[C@@H]12	
InChI=1S/C5H7NO/c1-2-3-4(2)6-5(3)7/h2-4H,1H3,(H,6,7)	InChI=1S/C5H7NO/c1-2-3-4(2)6-5(3)7/h2-4H,1H3,(H,6,7)/t2-,3+,4-/m1/s1
