14
gdb 2005	6.19821	2.0418	2.04169	4.2071	62.9	-0.3107	0.0253	0.3361	678.8012	0.115732	-287.407788	-287.40215	-287.401205	-287.437115	21.862	
N	 0.0197705026	-1.1048535255	-0.0046193054	-0.350257
C	 0.002264673	 0.0515430153	 0.0021574104	 0.154335
C	-0.0197175241	 1.4932193831	 0.010527022	 0.234295
C	-0.6435150872	 2.4223487531	 1.1010069956	-0.242146
C	-0.048293931	 3.3731324359	 0.0214124509	-0.061991
C	 1.2099915213	 2.4569015929	 0.0014938699	-0.242041
C	-0.6690490063	 2.4344457839	-1.054566947	-0.242265
H	-1.731603973	 2.392228517	 1.1903774727	 0.109982
H	-0.1538883698	 2.4110287269	 2.0772627791	 0.110019
H	-0.0648322947	 4.4613361702	 0.0277174009	 0.090062
H	 1.8319644007	 2.4480530419	 0.8992543384	 0.109974
H	 1.8108708107	 2.4581943391	-0.9105078706	 0.109969
H	-0.2021694002	 2.4341247706	-2.0418921107	 0.110024
H	-1.7589533519	 2.4050629356	-1.1189311563	 0.110041
176.8768	178.9332	508.8271	509.5234	537.1466	568.2899	569.3572	797.5343	799.3405	895.8007	951.6658	953.0578	957.3082	962.946	1001.4028	1098.4511	1099.3443	1135.2283	1135.6629	1170.9962	1171.8129	1232.9318	1233.6517	1243.2593	1272.5279	1498.4039	1499.6605	1552.738	2350.7547	3062.8626	3063.2512	3068.9801	3131.9891	3136.3024	3136.5034	3137.0257
N#CC12CC(C1)C2	N#C[C@@]12C[C@@H](C1)C2	
InChI=1S/C6H7N/c7-4-6-1-5(2-6)3-6/h5H,1-3H2	InChI=1S/C6H7N/c7-4-6-1-5(2-6)3-6/h5H,1-3H2/t5-,6-
