16
gdb 1734	5.18147	1.77074	1.6107	1.8187	66.	-0.2432	0.0542	0.2975	819.9171	0.13536	-288.584029	-288.57636	-288.575416	-288.61556	28.503	
C	-0.006209575	 1.5727922147	-0.2378407073	-0.463885
C	-0.0279706093	 0.0677204276	-0.076440425	 0.337455
C	-1.3360583724	-0.518567068	 0.4574502739	-0.391853
C	-1.7361011061	 0.0341546289	 1.7478447592	 0.316077
C	-2.0576676309	 0.5035191085	 2.8067003098	-0.458523
C	 0.7906276495	-0.7662949283	-0.9929646665	-0.285006
N	 1.1736466891	-0.6156341715	 0.4252452882	-0.334226
H	 0.9492626606	 1.90828972	-0.6535331878	 0.109652
H	-0.8018148798	 1.9085783674	-0.9126592195	 0.121996
H	-0.1592281554	 2.0673825533	 0.7265100573	 0.139623
H	-2.1337012166	-0.3441037763	-0.2774180196	 0.125588
H	-1.2167646416	-1.6036804733	 0.546645283	 0.13752
H	-2.344710233	 0.90482235	 3.7467795018	 0.194428
H	 0.4612091757	-1.7639776154	-1.2722200671	 0.114206
H	 1.3789312728	-0.2586797863	-1.7532837777	 0.109288
H	 1.9420143523	 0.0454472988	 0.5098953272	 0.22766
72.5124	143.2596	218.7686	325.4681	333.9272	354.722	373.3644	393.711	530.6167	613.9172	638.3194	735.0037	841.3621	887.4389	913.3677	940.072	972.199	994.1198	1017.8877	1067.7422	1115.6587	1148.5816	1228.208	1264.4684	1315.0473	1346.7786	1393.3937	1420.2417	1456.5462	1483.9771	1503.2672	1518.229	2237.2198	3018.8744	3030.2222	3070.9182	3095.0937	3102.9164	3108.3731	3185.8017	3497.6152	3506.8419
CC1(CC#C)CN1	C[C@@]1(CC#C)CN1	
InChI=1S/C6H9N/c1-3-4-6(2)5-7-6/h1,7H,4-5H2,2H3	InChI=1S/C6H9N/c1-3-4-6(2)5-7-6/h1,7H,4-5H2,2H3/t6-/m1/s1
