15
gdb 1635	4.48245	2.11164	1.46153	3.2383	61.51	-0.2535	-0.0175	0.2361	809.9073	0.125008	-341.871347	-341.863669	-341.862724	-341.903098	27.068	
C	-0.0187839264	 1.4541235701	-0.020061911	-0.333882
N	-0.0136912401	-0.0103797248	-0.0033997851	-0.10058
C	-0.0581535006	-0.6531345854	 1.2183156424	 0.162598
O	-0.1012826297	-0.0924073434	 2.2894931393	-0.321662
C	 0.0359246957	-0.6802825362	-1.2346539171	 0.374337
C	 0.0416552839	-2.1951528809	-1.2207865702	-0.487266
N	 0.0729837982	 0.0402416638	-2.2868055705	-0.495969
H	 0.8826014393	 1.8249317318	-0.5117528368	 0.145792
H	-0.8817933033	 1.8179237357	-0.5809178965	 0.145872
H	-0.0605486948	 1.7884863585	 1.0144450694	 0.159747
H	-0.0508459837	-1.7493649872	 1.1321953393	 0.093395
H	-0.8591002853	-2.6039786272	-0.7525467871	 0.151737
H	 0.0831959211	-2.5561355639	-2.2497571276	 0.133578
H	 0.9065033163	-2.5968335953	-0.6837622604	 0.151718
H	 0.1071070893	-0.5469915359	-3.1176467581	 0.220584
85.9457	153.0053	179.3322	232.6505	277.6029	343.3187	361.3581	440.8062	525.68	580.4009	637.9192	836.0122	862.3054	958.8269	1025.1346	1043.2015	1067.1288	1107.2324	1160.6978	1223.5118	1352.5469	1397.3691	1411.1163	1448.2458	1469.5937	1483.2107	1491.0404	1496.1794	1508.8788	1697.4522	1800.4815	3028.873	3046.4651	3069.6409	3108.8842	3134.2725	3136.4388	3184.6936	3504.7657
CN(C=O)C(C)=N	CN(C=O)C(=N)C	
InChI=1S/C4H8N2O/c1-4(5)6(2)3-7/h3,5H,1-2H3	InChI=1S/C4H8N2O/c1-4(5)6(2)3-7/h3,5H,1-2H3
