15
gdb 2995	5.13818	1.77735	1.47382	1.9443	57.64	-0.2495	-0.025	0.2245	842.7333	0.123043	-345.650717	-345.64309	-345.642146	-345.6831	26.323	
C	-0.3620854743	 1.4469347143	-0.5740246272	-0.380368
C	-0.6517332416	-0.0486020139	-0.4810417432	-0.286286
C	-1.0011602032	-0.4986693789	 0.9257977996	 0.357436
O	-0.9544013257	 0.2332274873	 1.8891347803	-0.307938
C	-1.4008047361	-1.9392039822	 1.119165888	-0.006727
C	-2.5147328123	-2.5375778108	 0.3542836575	-0.174944
O	-1.1653028906	-2.8566556518	 0.0495070745	-0.216454
H	-0.0822016637	 1.7226246706	-1.5943464022	 0.111515
H	-1.2369493189	 2.0356538694	-0.2849502611	 0.128118
H	 0.4524155986	 1.7277108512	 0.0981005361	 0.135
H	-1.4587126676	-0.3456958172	-1.1631531861	 0.123129
H	 0.2093455238	-0.6490241843	-0.8040119283	 0.141466
H	-1.206660104	-2.316919127	 2.1219531784	 0.118657
H	-3.0971092415	-3.3312614617	 0.8188574419	 0.132426
H	-3.040826903	-1.9441671151	-0.3913697481	 0.12497
57.212	95.1602	183.5999	190.2006	270.9278	288.87	480.1334	561.499	570.2497	742.6682	796.8573	875.1815	900.4368	944.3823	1002.89	1065.066	1096.8602	1102.4411	1148.4402	1164.4862	1203.6356	1264.1606	1271.8051	1373.0295	1394.4366	1416.0386	1438.9709	1493.4354	1498.6981	1524.5758	1802.1207	3030.7957	3051.5062	3054.383	3090.5338	3121.7716	3128.3382	3132.7768	3181.0861
CCC(=O)C1CO1	CCC(=O)[C@H]1CO1	
InChI=1S/C5H8O2/c1-2-4(6)5-3-7-5/h5H,2-3H2,1H3	InChI=1S/C5H8O2/c1-2-4(6)5-3-7-5/h5H,2-3H2,1H3/t5-/m1/s1
