12
gdb 3711	3.73315	3.46658	1.82171	4.6461	52.04	-0.2461	-0.025	0.2211	651.9948	0.090578	-356.663387	-356.656969	-356.656025	-356.693521	23.165	
C	-0.050118536	 1.5015552839	-0.0273098754	-0.507988
C	-0.01707192	 0.0123464928	 0.0356073681	 0.305833
N	-0.02207689	-0.7513862077	-1.0212873153	-0.135108
O	-0.0000393068	-2.0373477368	-0.572934021	-0.163417
N	 0.0322561505	-2.0860624637	 0.8060031212	-0.165422
C	 0.0140734527	-0.8371363409	 1.1918360154	 0.280469
N	-0.0484597037	-0.4432653977	 2.51437445	-0.58659
H	 0.8567690279	 1.9394377308	 0.4061143432	 0.135862
H	-0.1258207776	 1.8315718056	-1.0645304556	 0.161194
H	-0.9054635654	 1.8958255765	 0.5316377561	 0.148261
H	 0.1573548729	-1.1902314744	 3.1639978328	 0.267744
H	 0.4748939456	 0.3938034616	 2.7281010803	 0.259161
135.0116	232.4119	243.4331	284.364	366.214	449.7058	615.2621	635.5119	664.0067	747.2831	762.857	916.8118	946.7694	996.1079	1066.9233	1068.6102	1153.436	1283.033	1417.0125	1453.4511	1481.1192	1495.6032	1561.9449	1632.0214	1668.4113	3034.3721	3088.4727	3143.9748	3558.3322	3656.7919
CC1=NON=C1N	Cc1nonc1N	
InChI=1S/C3H5N3O/c1-2-3(4)6-7-5-2/h1H3,(H2,4,6)	InChI=1S/C3H5N3O/c1-2-3(4)6-7-5-2/h1H3,(H2,4,6)
