17
gdb 2429	5.23866	2.73732	2.35937	0.2939	67.57	-0.2384	0.1023	0.3407	648.6045	0.149749	-272.537685	-272.531719	-272.530775	-272.566905	24.285	
C	-0.0605461385	 1.4713206773	 0.0063793359	-0.506061
C	 0.0322203927	-0.0252006688	-0.0128839363	 0.361306
C	 0.910507033	-0.8901940724	-0.9197549025	-0.274004
C	 0.0391069695	-2.088293822	-0.4559364089	-0.057907
C	 0.3844139367	-2.240264374	 1.0506897671	-0.227576
C	-0.2874955683	-0.8809992228	 1.2286079475	-0.099961
C	-1.0830344773	-1.046591113	-0.0490572204	-0.12073
H	 0.8622493905	 1.9240029879	 0.3889949369	 0.117688
H	-0.2355063658	 1.8733920101	-0.9983133036	 0.115194
H	-0.8831098306	 1.8095485132	 0.6461377	 0.11609
H	 0.7403363848	-0.6466941101	-1.9733922768	 0.091075
H	 1.9895806599	-0.9435926101	-0.725644724	 0.080772
H	-0.0924966374	-2.9619502883	-1.0909915622	 0.065832
H	-0.2004001299	-3.0354992855	 1.522335893	 0.095147
H	 1.4422265372	-2.3545098781	 1.317930892	 0.08351
H	-0.6094895028	-0.4078009766	 2.1483558746	 0.077335
H	-2.1396128436	-0.9622058771	-0.2602811122	 0.08229
211.7867	247.4196	292.4509	426.5712	437.0599	593.2562	716.2197	746.1945	802.9193	823.3279	871.2782	895.3887	909.6295	945.8642	974.6939	986.0714	1003.7678	1036.5426	1057.4324	1091.5081	1117.3885	1140.7316	1165.902	1183.7041	1208.4886	1233.8125	1268.2886	1282.9936	1314.0961	1405.0862	1427.1789	1486.9876	1492.7966	1499.3253	1509.0563	3014.8875	3018.8671	3025.4975	3076.7656	3080.5974	3087.4039	3089.061	3133.7563	3184.8002	3215.4859
CC12CC3CC1C23	C[C@@]12C[C@H]3C[C@@H]1[C@@H]23	
InChI=1S/C7H10/c1-7-3-4-2-5(7)6(4)7/h4-6H,2-3H2,1H3	InChI=1S/C7H10/c1-7-3-4-2-5(7)6(4)7/h4-6H,2-3H2,1H3/t4-,5-,6+,7-/m1/s1
