15
gdb 526	15.21364	1.3216	1.25359	4.1681	57.89	-0.3164	0.0376	0.354	924.0066	0.13111	-250.583643	-250.576387	-250.575443	-250.614891	24.704	
C	 0.0203900316	 1.5598832023	 0.0101663471	-0.385137
C	-0.0079954708	 0.0294159849	 0.0022917532	-0.169629
C	-1.431643917	-0.5351829068	 0.0129887038	-0.160293
C	-1.4452631675	-2.0768326727	 0.0047781107	-0.339153
C	-2.797319362	-2.6307042489	 0.0145403406	 0.255266
N	-3.8739446761	-3.0506099717	 0.022709685	-0.305199
H	 1.0472309301	 1.9371465753	 0.0022833985	 0.118609
H	-0.4926823129	 1.9697031443	-0.8665242891	 0.120462
H	-0.4756549529	 1.9602831724	 0.9008962714	 0.120462
H	 0.5240655752	-0.3447854075	-0.8823621421	 0.10132
H	 0.540957065	-0.3541446194	 0.8724971057	 0.10132
H	-1.9705196421	-0.1776905507	 0.897946588	 0.120056
H	-1.9874260936	-0.1682549169	-0.8575294164	 0.120054
H	-0.9219207444	-2.4559958416	-0.8811207544	 0.150927
H	-0.9051511127	-2.4655055029	 0.876408058	 0.150934
89.9241	121.2707	126.125	246.434	283.9004	381.9765	400.8884	546.9148	735.918	793.1668	903.2066	934.2297	939.9887	1018.0208	1061.2961	1124.1062	1138.1088	1242.2867	1279.4342	1313.6905	1331.543	1358.6026	1397.2897	1417.9349	1468.8821	1486.5754	1497.4858	1500.9804	1511.925	2362.2368	3014.7156	3032.7031	3035.0892	3042.454	3044.4376	3066.7734	3089.2443	3102.3173	3108.38
CCCCC#N	CCCCC#N	
InChI=1S/C5H9N/c1-2-3-4-5-6/h2-4H2,1H3	InChI=1S/C5H9N/c1-2-3-4-5-6/h2-4H2,1H3
