17
gdb 2029	7.35255	1.74079	1.64499	1.9136	65.74	-0.2111	0.0771	0.2882	811.8362	0.14888	-305.838224	-305.831278	-305.830334	-305.868914	26.104	
C	-0.0367075478	 1.5093782259	 0.0691047578	-0.319162
N	-0.0332450058	 0.0653550933	 0.103336889	-0.066626
C	-1.2689674708	-0.6273280051	 0.525624715	-0.241575
C	-0.3995117928	-1.5852599486	 1.3453478316	 0.34187
C	-0.7682399027	-2.4784651172	 2.4566965097	-0.308854
N	-0.2799831906	-3.0258923006	 1.1704357517	-0.353101
C	 0.7648023367	-0.6135963422	 1.1506012865	-0.221924
H	 0.9639353126	 1.8767031846	-0.1819612071	 0.122051
H	-0.7253890013	 1.8622930301	-0.7061125209	 0.119701
H	-0.3387549504	 1.9704230854	 1.0301911767	 0.086839
H	-1.9322498129	-0.0094376858	 1.1547667889	 0.086092
H	-1.8592536451	-1.0529185447	-0.296273499	 0.099786
H	-0.0926265665	-2.6194715017	 3.2966594415	 0.119035
H	-1.8227058935	-2.5776262172	 2.705182403	 0.110278
H	-1.059960437	-3.3805079637	 0.6212000269	 0.229548
H	 1.7116867227	-1.0402143475	 0.8038617517	 0.112742
H	 0.9493437853	 0.013014405	 2.039097727	 0.0833
87.6126	226.706	261.7157	294.5014	304.5037	394.1899	413.2656	515.9964	735.8398	824.0367	870.6377	911.6766	933.2798	970.9447	988.373	1001.8213	1048.3982	1094.0476	1123.1443	1126.8819	1156.9562	1186.9523	1216.9991	1219.7165	1264.8512	1271.2799	1312.2395	1329.5032	1440.853	1452.1674	1486.4834	1494.161	1498.7123	1518.0502	1524.8612	2913.7421	2952.3969	2966.7139	3029.5615	3054.8794	3065.9256	3097.4437	3098.702	3181.5183	3488.5088
CN1CC2(CN2)C1	CN1CC2(CN2)C1	
InChI=1S/C5H10N2/c1-7-3-5(4-7)2-6-5/h6H,2-4H2,1H3	InChI=1S/C5H10N2/c1-7-3-5(4-7)2-6-5/h6H,2-4H2,1H3
