12
gdb 3143	4.58423	2.75041	1.96809	2.7418	52.25	-0.2727	-0.0005	0.2721	636.5598	0.090153	-360.476593	-360.470684	-360.469739	-360.506347	21.568	
N	-0.0568930038	 1.214730179	-0.2719961947	-0.544856
C	-0.0451376525	-0.0044907689	 0.0057766875	 0.382325
O	 0.9769064633	-0.8465975473	 0.4164440202	-0.263592
C	 0.0993360892	-2.0186605017	 0.4401397852	-0.156843
C	-1.0653819738	-1.1093647034	 0.0502258501	 0.298184
C	-2.4808196795	-1.0851197665	 0.4176190928	-0.24973
O	-2.045490523	-1.3753059909	-0.9181306105	-0.243549
H	 0.8681188259	 1.6369615562	-0.1807343852	 0.235975
H	 0.3900242346	-2.7492822036	-0.3184845246	 0.138017
H	 0.0716523159	-2.4720579762	 1.4335439408	 0.129773
H	-2.9057210526	-1.9255117993	 0.9640325313	 0.127819
H	-2.9753069636	-0.1248845175	 0.5471692871	 0.146476
145.5371	229.1073	248.5588	345.6582	485.4155	607.2315	685.8236	762.8643	853.9197	880.4941	883.3617	935.9543	972.6548	995.5967	1089.1519	1127.4675	1144.841	1146.8096	1167.2933	1242.2904	1325.7354	1453.4569	1507.7176	1535.0198	1835.7773	3066.6209	3092.4291	3129.1846	3189.6358	3486.8012
N=C1OCC11CO1	[NH][C]1OC[C@]21CO2	
InChI=1S/C4H5NO2/c5-3-4(1-6-3)2-7-4/h5H,1-2H2	InChI=1S/C4H5NO2/c5-3-4(1-6-3)2-7-4/h5H,1-2H2/t4-/m1/s1
