14
gdb 4150	3.44644	1.51992	1.1188	1.3861	67.88	-0.2405	-0.0045	0.236	1015.9481	0.10555	-378.605528	-378.597633	-378.596689	-378.637936	28.837	
O	-0.138979098	 1.3778074035	 0.0607402344	-0.387637
N	 0.0302982248	-0.0154261192	 0.0837077917	-0.224752
C	-1.0788288915	-0.6079811505	-0.0091634051	 0.413758
C	-2.5379323476	-0.2570019565	-0.1782724146	-0.262157
N	-2.8042109491	-1.69838834	-0.456664951	-0.310768
C	-1.4179244111	-2.0960760961	-0.0347293106	-0.275878
C	-0.7026444092	-2.9732516203	-0.9464374283	 0.372943
C	-0.1030846942	-3.7058046	-1.6859415402	-0.438864
H	 0.7694619641	 1.6946251606	 0.1117102507	 0.311615
H	-2.9920175748	 0.1463724434	 0.7372590358	 0.120774
H	-2.7816675893	 0.4108530535	-1.0109896352	 0.13902
H	-3.5284975363	-2.1085243088	 0.1216993988	 0.22699
H	-1.3773351688	-2.5170207174	 0.9817446699	 0.11495
H	 0.4254403509	-4.3455318023	-2.3487325964	 0.200007
96.9363	108.3813	183.0335	223.4104	298.8624	362.973	420.423	484.6387	521.0217	595.2288	626.973	661.7845	685.3059	775.2394	861.8237	951.9989	977.595	1004.0525	1026.5656	1072.7501	1117.3898	1169.9555	1213.3679	1298.3917	1340.3416	1377.0123	1409.6901	1493.0067	1807.7454	2241.6741	2980.3704	3011.9521	3069.8619	3503.4741	3542.7388	3815.0989
ON=C1CNC1C#C	ON=C1CN[C@H]1C#C	
InChI=1S/C5H6N2O/c1-2-4-5(7-8)3-6-4/h1,4,6,8H,3H2	InChI=1S/C5H6N2O/c1-2-4-5(7-8)3-6-4/h1,4,6,8H,3H2/t4-/m0/s1
