15
gdb 1667	4.85359	1.86769	1.46739	2.7792	54.05	-0.2666	0.0029	0.2695	837.2155	0.122938	-382.825717	-382.817421	-382.816477	-382.858645	28.236	
C	 0.0247531134	 1.3404453096	-0.0364290995	-0.243286
O	 0.018076524	-0.0950384839	-0.0914725586	-0.225869
C	 0.6564333547	-0.6374384012	-1.1328441574	 0.421551
O	 1.2204869142	-0.0037219052	-1.9952934861	-0.378535
C	 0.6037247933	-2.161061501	-1.1275713177	 0.045684
C	-0.8393324672	-2.672362265	-1.2307503403	-0.393081
O	 1.388114031	-2.6518579785	-2.1860513999	-0.43817
H	 1.0493525089	 1.7156557645	 0.0184731198	 0.146934
H	-0.4592193654	 1.7594915745	-0.9217534873	 0.14632
H	-0.5289743037	 1.6037726683	 0.8641911349	 0.139864
H	 1.0270275978	-2.4935525295	-0.1670062201	 0.100945
H	-1.4350560413	-2.3428173029	-0.3758865569	 0.125862
H	-1.3051573402	-2.312504623	-2.1531496876	 0.124486
H	-0.828102766	-3.7645795245	-1.257930845	 0.132884
H	 1.6994242064	-1.8717403921	-2.6688473782	 0.29441
53.9586	116.2793	134.8631	205.267	235.3772	292.5027	357.6988	375.9259	408.8464	488.6742	650.7712	759.5663	852.084	934.0775	1010.8633	1054.819	1104.7598	1168.7966	1178.6781	1211.2081	1255.0329	1299.4423	1357.8091	1398.2942	1441.4688	1475.0846	1482.5651	1492.3056	1496.563	1500.7474	1801.6694	2988.7059	3046.738	3056.0489	3123.7492	3133.3969	3134.8864	3165.6458	3718.5127
COC(=O)C(C)O	COC(=O)[C@@H](C)O	
InChI=1S/C4H8O3/c1-3(5)4(6)7-2/h3,5H,1-2H3	InChI=1S/C4H8O3/c1-3(5)4(6)7-2/h3,5H,1-2H3/t3-/m1/s1
