11
gdb 3968	5.31904	1.61727	1.24019	3.5253	61.38	-0.2438	-0.0741	0.1697	864.7768	0.071577	-430.598508	-430.592081	-430.591137	-430.629233	23.658	
O	-0.0799475995	 1.3419843182	 0.1136817667	-0.377369
N	 0.0513930048	-0.0412472057	 0.0706743763	-0.214421
C	-1.0940728648	-0.6207590497	-0.0577822411	 0.258168
C	-2.403175572	 0.0015194299	-0.1534291648	 0.005786
N	-3.4948884296	-0.6618391802	-0.2802816068	-0.054976
O	-3.4297815662	-2.0428576857	-0.3292956556	-0.22916
N	-2.2257465676	-2.7435435523	-0.2464355602	-0.07453
C	-1.1455471666	-2.0644444961	-0.1200154359	 0.04574
H	 0.831816779	 1.6385468874	 0.2093702925	 0.320514
H	-2.5126852274	 1.0787096854	-0.1206000799	 0.165003
H	-0.22888042	-2.6438868311	-0.0587620411	 0.155244
108.3073	232.3558	250.6426	377.6968	447.9481	449.2148	518.8325	612.5503	659.8869	727.0489	769.6633	796.4741	894.9192	942.3846	956.1832	1021.3849	1051.2412	1288.7854	1320.1187	1353.0004	1426.8867	1627.2956	1657.4401	1709.4829	3184.1092	3216.9436	3817.7855
ON=C1C=NON=C1	ON=c1cnonc1	
InChI=1S/C3H3N3O2/c7-6-3-1-4-8-5-2-3/h1-2,7H	InChI=1S/C3H3N3O2/c7-6-3-1-4-8-5-2-3/h1-2,7H
