15
gdb 4873	4.61603	1.35921	1.10107	1.7273	65.09	-0.1846	0.0422	0.2268	1033.5172	0.119655	-399.826601	-399.818803	-399.817859	-399.858926	28.887	
O	 0.5364547157	 0.3069148696	-0.8537413738	-0.420452
C	-0.1367086586	 0.2936585919	 0.4084962688	-0.182083
C	-1.5120388902	-0.267549958	 0.3259651165	 0.2549
C	-2.7335624713	 0.2174863598	 0.7245047993	-0.215977
C	-3.7311621973	-0.7568647377	 0.4096264845	-0.293948
C	-3.0679789887	-1.8053377283	-0.1848106539	 0.369522
O	-3.4758188824	-2.9886255092	-0.7084971404	-0.433727
N	-1.7364489788	-1.522052447	-0.2265551977	-0.325848
H	-0.0339122799	 0.7823056322	-1.4681217867	 0.278889
H	 0.5133023429	-0.3105566655	 1.0540730412	 0.112162
H	-0.1936737541	 1.2969327881	 0.8549462768	 0.100417
H	-2.8992034597	 1.1677963945	 1.2099806379	 0.092367
H	-4.7921892959	-0.6941762136	 0.5953032217	 0.08647
H	-4.4330260528	-3.0393351734	-0.6294220168	 0.307901
H	-1.041908849	-2.0852128935	-0.6874761476	 0.269408
65.5752	132.4583	241.6869	250.2308	304.196	377.4985	409.048	466.1481	474.7222	617.9995	656.32	680.9869	732.7807	740.1866	813.0323	962.7158	997.6235	1017.6676	1032.5513	1063.5199	1171.8821	1191.7114	1221.6443	1280.7757	1309.1798	1356.7097	1418.8656	1429.4023	1500.6101	1533.1316	1573.3089	1642.0994	3001.1611	3042.1234	3237.8611	3252.5786	3675.2535	3798.4794	3848.825
OCC1=CC=C(O)N1	OCc1ccc(O)[nH]1	
InChI=1S/C5H7NO2/c7-3-4-1-2-5(8)6-4/h1-2,6-8H,3H2	InChI=1S/C5H7NO2/c7-3-4-1-2-5(8)6-4/h1-2,6-8H,3H2
