14
gdb 359	9.27952	1.97063	1.67949	3.84	50.24	-0.2429	-0.0073	0.2356	723.3895	0.116949	-307.58009	-307.572434	-307.571489	-307.612431	25.279	
C	-0.0093944023	 1.5151876507	 0.1004674449	-0.373126
C	-0.0292870594	 0.0014787734	-0.1006008628	-0.28712
C	 0.7020897335	-0.4465113054	-1.3614826518	 0.38042
O	 1.0786949355	 0.3245705476	-2.2076399388	-0.276713
C	 0.9237493949	-1.953684167	-1.4777451374	-0.168779
O	 1.4727708402	-2.2606238277	-2.7315785902	-0.393831
H	 1.0140257554	 1.8801268027	 0.2228278753	 0.128694
H	-0.4333898797	 2.0245311412	-0.7677664803	 0.138209
H	-0.5839657984	 1.7960332209	 0.9873275278	 0.109688
H	 0.3986636917	-0.5242394308	 0.7635543198	 0.114083
H	-1.0626691195	-0.3666567166	-0.1764103804	 0.125354
H	 1.5822929536	-2.2485664128	-0.6410214424	 0.107425
H	-0.0436699498	-2.4550951255	-1.2992892043	 0.103241
H	 1.6254185645	-3.2093058007	-2.7657418095	 0.292452
36.636	80.7542	189.7902	202.4006	232.097	307.2404	407.8916	468.6095	639.1931	745.848	811.2556	936.5033	983.7129	1019.3376	1115.0593	1122.2604	1154.0387	1236.1522	1246.1665	1291.3812	1367.9263	1413.3311	1442.8044	1453.994	1492.8598	1494.6337	1499.5524	1831.6229	2945.6408	2967.5018	3013.9757	3043.7913	3051.9196	3120.5871	3132.1913	3836.0622
CCC(=O)CO	CCC(=O)CO	
InChI=1S/C4H8O2/c1-2-4(6)3-5/h5H,2-3H2,1H3	InChI=1S/C4H8O2/c1-2-4(6)3-5/h5H,2-3H2,1H3
