14
gdb 4847	5.12511	1.42279	1.18218	1.0884	60.37	-0.2185	0.0232	0.2417	983.812	0.108209	-415.883086	-415.875722	-415.874778	-415.915127	26.637	
C	 0.1087845497	 1.2602552953	 0.4029618682	-0.330553
N	-0.0588234451	 0.0403905907	-0.3951490469	-0.391308
C	-1.1651590118	-0.735219798	-0.1196323989	 0.304146
C	-1.34991789	-1.9833167312	 0.3611734583	-0.135225
N	-2.7098845287	-2.2801480137	 0.4585852914	-0.386882
C	-3.2736078322	-1.1945721155	 0.0355916005	 0.478913
O	-4.5769556316	-0.9413985342	-0.0767100328	-0.400147
O	-2.4650014094	-0.2033334107	-0.336679292	-0.203791
H	 1.0573315626	 1.7323181823	 0.1324547613	 0.12296
H	-0.6999537848	 1.9920674787	 0.2674793166	 0.121883
H	 0.1516753162	 0.9869207881	 1.4607982893	 0.136079
H	 0.0485136699	 0.2299934858	-1.3854801056	 0.237976
H	-0.5900529031	-2.6946961672	 0.6424525127	 0.125884
H	-5.0356596714	-1.7371050704	 0.2232635379	 0.320065
68.3592	139.4293	177.4001	268.1811	346.0539	431.6429	457.2987	508.2086	616.0192	621.9815	727.8807	755.3743	772.7852	874.4749	915.6705	1020.8846	1036.1422	1135.8601	1147.8275	1166.4759	1200.3844	1230.2765	1296.6525	1450.6367	1467.9522	1489.7629	1503.3852	1521.6138	1643.1436	1704.1345	3004.306	3083.8814	3121.655	3269.6752	3523.0319	3799.7473
CNC1=CN=C(O)O1	CNc1cnc(O)o1	
InChI=1S/C4H6N2O2/c1-5-3-2-6-4(7)8-3/h2,5H,1H3,(H,6,7)	InChI=1S/C4H6N2O2/c1-5-3-2-6-4(7)8-3/h2,5H,1H3,(H,6,7)
