21
gdb 1190	4.21306	1.59526	1.58608	1.3701	70.35	-0.2634	0.071	0.3344	930.2807	0.19263	-312.126404	-312.116983	-312.116038	-312.159466	34.624	
C	-0.091542559	 1.5321810117	 0.1409327487	-0.398482
C	 0.023439988	 0.0139048874	-0.0352738606	-0.187443
C	 0.7493090416	-0.4756892056	-1.3122698279	 0.272105
C	 0.0133875499	-0.0101584069	-2.5824990763	-0.409063
C	 2.2095020322	 0.0128402221	-1.3429829838	-0.409069
C	 0.7390944442	-2.0143385514	-1.2656641105	-0.083642
O	 1.3943577562	-2.5284423833	-2.4177503746	-0.427385
H	 0.8900421439	 2.0129077365	 0.19180415	 0.118459
H	-0.6496217167	 1.9971914949	-0.6772996683	 0.118458
H	-0.6189524832	 1.7667010522	 1.0710084376	 0.111017
H	 0.5413213619	-0.4028797171	 0.83946119	 0.087708
H	-0.986465873	-0.4185390968	-0.0229257994	 0.087715
H	 0.0635712608	 1.0762840151	-2.6988576706	 0.10731
H	 0.4597296157	-0.4675911307	-3.4684287472	 0.130675
H	-1.0445608366	-0.2965929477	-2.5522984549	 0.099989
H	 2.7347726294	-0.2568296759	-0.4190873723	 0.099982
H	 2.7445664491	-0.4438245199	-2.1787448261	 0.130657
H	 2.2659225705	 1.0993299364	-1.4560135464	 0.107318
H	 1.2442178277	-2.3525085167	-0.346067657	 0.07851
H	-0.3037248447	-2.3686723286	-1.2193076	 0.078506
H	 1.3782031122	-3.4880509958	-2.3699595303	 0.286671
86.7501	128.5973	204.5374	211.8091	221.7183	261.281	274.272	307.074	331.3761	370.8858	407.9884	418.4336	546.3866	728.4552	787.2491	870.7739	932.9791	954.2415	963.6215	1001.5023	1025.3785	1060.8854	1100.1744	1103.1809	1197.6635	1222.5418	1232.3707	1279.4941	1294.6234	1350.3893	1376.4989	1397.7096	1409.2026	1416.0826	1459.9872	1482.9269	1484.3542	1493.6501	1500.9136	1510.3278	1511.1376	1517.3784	1521.5383	2956.1753	2987.8209	3004.5472	3029.8229	3034.8484	3037.5027	3041.2114	3096.3659	3098.7587	3105.1275	3112.2586	3124.6356	3127.9838	3839.3032
CCC(C)(C)CO	CCC(C)(C)CO	
InChI=1S/C6H14O/c1-4-6(2,3)5-7/h7H,4-5H2,1-3H3	InChI=1S/C6H14O/c1-4-6(2,3)5-7/h7H,4-5H2,1-3H3
