17
gdb 4499	3.42617	1.79983	1.20649	1.4563	72.5	-0.2156	0.0177	0.2333	1016.8696	0.141139	-363.925802	-363.917209	-363.916264	-363.958937	30.221	
C	 0.0658248275	 1.4249413626	 0.0977441695	-0.489299
C	 0.0414547472	-0.0534665539	-0.0522420071	 0.368923
N	-0.0156783249	-0.7530585911	-1.1387309065	-0.344912
C	-0.0124407106	-2.0840198112	-0.7122109929	 0.170114
C	-0.06984569	-3.2084629402	-1.6909002747	-0.495015
C	 0.0481078955	-2.1093573516	 0.6436251107	 0.255134
C	 0.0820934114	-3.1699842983	 1.6815094757	-0.497496
O	 0.0833062196	-0.8026156914	 1.0796074628	-0.211132
H	 0.9762555434	 1.755671742	 0.6087083013	 0.142186
H	 0.0271683975	 1.8813020096	-0.89155199	 0.154555
H	-0.787374366	 1.7767750272	 0.6873372687	 0.142189
H	 0.7815082693	-3.1717137161	-2.3792226625	 0.13627
H	-0.0590585682	-4.1785474207	-1.1874078785	 0.118448
H	-0.9781384502	-3.150392079	-2.3004651586	 0.136275
H	 0.99423971	-3.1137195333	 2.2868598333	 0.138257
H	-0.7703888349	-3.0925864244	 2.3662801469	 0.138255
H	 0.0491121736	-4.1550092104	 1.210760622	 0.137248
101.079	111.4999	139.9336	173.8491	228.3195	255.9233	263.3056	342.7222	460.3268	613.0636	639.8052	660.8485	698.7812	789.521	943.8554	985.0846	1014.4795	1057.2422	1060.8189	1065.5836	1070.1947	1156.3658	1225.0506	1303.7057	1358.7499	1409.6044	1421.8708	1423.7811	1471.389	1475.4534	1476.0548	1481.9091	1491.9717	1492.4086	1631.1915	1688.9504	3028.2121	3035.1837	3041.953	3076.9336	3088.3113	3094.7778	3118.2133	3128.2471	3156.4904
CC1=NC(C)=C(C)O1	Cc1nc(C)c(C)o1	
InChI=1S/C6H9NO/c1-4-5(2)8-6(3)7-4/h1-3H3	InChI=1S/C6H9NO/c1-4-5(2)8-6(3)7-4/h1-3H3
