14
gdb 4077	4.39905	1.62429	1.2542	1.826	61.91	-0.2506	-0.0098	0.2408	910.7777	0.108119	-415.820763	-415.813614	-415.812669	-415.852638	25.844	
O	-0.0423298755	 1.3762241969	 0.0309311496	-0.394384
N	 0.069575405	-0.020807019	-0.0320045905	-0.184268
C	-1.065152308	-0.6010644045	-0.0564305473	 0.319947
C	-2.4020516863	 0.0881903765	-0.0711943163	-0.155899
O	-3.3274185441	-0.5547966294	-0.9640227026	-0.226715
C	-3.1229661175	-1.8605229776	-1.2567757623	 0.14185
N	-2.1864428604	-2.6362752426	-0.9159479012	-0.269245
C	-1.108402301	-2.1046701274	-0.0868363672	-0.231971
H	 0.87738673	 1.6563396749	-0.0247611549	 0.311964
H	-2.8416020116	 0.0869314284	 0.935673984	 0.13368
H	-2.3076993175	 1.1208980097	-0.4047440595	 0.156277
H	-3.9330281836	-2.2165589416	-1.8906292563	 0.1304
H	-0.1507647972	-2.4939590231	-0.4432702355	 0.138687
H	-1.2398643022	-2.4950121711	 0.93351681	 0.129677
78.241	98.4364	254.3327	295.2823	361.8425	433.9321	473.384	494.7873	566.3789	647.6343	778.6601	907.7992	915.0522	957.0516	962.6277	987.8004	1007.279	1067.4968	1173.6565	1229.1842	1262.862	1278.7141	1336.6915	1376.0204	1407.6925	1421.455	1470.4329	1496.7092	1743.9176	1745.1789	2998.086	3018.8092	3086.2702	3141.4113	3161.9568	3821.827
ON=C1COC=NC1	ON=C1COC=NC1	
InChI=1S/C4H6N2O2/c7-6-4-1-5-3-8-2-4/h3,7H,1-2H2	InChI=1S/C4H6N2O2/c7-6-4-1-5-3-8-2-4/h3,7H,1-2H2
