12
gdb 1410	8.22326	1.39293	1.24948	4.1242	51.87	-0.2981	-0.0634	0.2347	873.592	0.088306	-360.529992	-360.522703	-360.521759	-360.561849	24.692	
O	 0.0674521906	 1.5152490484	-0.057448126	-0.419327
C	 0.0232065608	 0.1239764624	-0.0233635964	 0.056327
C	 0.694800297	-0.4861811715	-1.2802457793	-0.360481
C	-0.0185173139	-0.1375940312	-2.5050329004	 0.278288
N	-0.5907032802	 0.1215440695	-3.4742304121	-0.294084
C	 0.7030436645	-0.4076150103	 1.2287064467	 0.131071
O	 1.1807582892	 0.3384894261	 2.0456500284	-0.243505
H	 0.5211702775	 1.7890913036	 0.7559032838	 0.301829
H	-1.0204422337	-0.2361443743	 0.0074861983	 0.120707
H	 1.723618356	-0.1167203698	-1.3466948143	 0.167768
H	 0.7334329031	-1.579011354	-1.1974082502	 0.152729
H	 0.7280674791	-1.5094499891	 1.3519890115	 0.10868
66.2783	102.5389	173.9263	295.7698	339.1428	379.1956	391.2845	458.2155	535.5726	751.2994	837.28	885.411	922.7206	1012.0196	1066.2229	1160.1411	1244.9133	1259.4467	1321.5111	1358.2176	1401.6839	1436.4092	1452.915	1821.5334	2369.4621	2932.3558	2962.0597	3042.202	3092.1564	3689.9344
OC(CC#N)C=O	O[C@@H](CC#N)C=O	
InChI=1S/C4H5NO2/c5-2-1-4(7)3-6/h3-4,7H,1H2	InChI=1S/C4H5NO2/c5-2-1-4(7)3-6/h3-4,7H,1H2/t4-/m0/s1
