19
gdb 2725	8.01396	0.96114	0.90219	2.249	65.31	-0.2596	0.0845	0.3441	1311.4578	0.170138	-348.047609	-348.038588	-348.037644	-348.081975	30.883	
C	-0.122815757	 1.427585222	 0.0202920493	-0.382433
C	 0.0122088879	-0.0957748025	-0.0446405728	-0.183941
C	 0.7244745041	-0.5616150123	-1.3069486885	-0.029009
O	 0.8176474961	-1.9718322106	-1.2874694717	-0.260412
C	 1.4501139823	-2.5239022082	-2.4262474417	-0.070501
C	 1.3217241057	-4.0346477157	-2.3065266982	-0.057367
O	-0.0336682869	-4.4303728943	-2.2428618189	-0.422047
H	 0.8577752688	 1.9159421943	 0.0088991901	 0.117541
H	-0.6956691318	 1.8146897955	-0.8295781244	 0.11782
H	-0.6366606018	 1.7373352368	 0.9346394405	 0.119281
H	 0.567099997	-0.4661284165	 0.8249514249	 0.108255
H	-0.9772159007	-0.5663984944	-0.0080574293	 0.10456
H	 0.1753985956	-0.2289788166	-2.2047916899	 0.087332
H	 1.7327267362	-0.1165485783	-1.3645866745	 0.085901
H	 0.9518998648	-2.1758316318	-3.3456457419	 0.093488
H	 2.5098751577	-2.2227161706	-2.475422817	 0.085661
H	 1.7626444695	-4.5160094812	-3.185718925	 0.106273
H	 1.8821304024	-4.3714669103	-1.4194714257	 0.091742
H	-0.4372278899	-3.8573666855	-1.5798361754	 0.287856
50.7017	70.6198	119.3906	144.1235	185.8441	232.0475	279.5177	388.184	403.936	455.1268	558.1338	765.0903	868.1	896.4516	902.8739	921.459	1033.4194	1061.2428	1085.7428	1130.967	1151.391	1159.9929	1194.1827	1240.7033	1259.3537	1272.9852	1315.6082	1333.3199	1384.9773	1389.4569	1411.667	1438.656	1450.0236	1491.5073	1499.6956	1499.9915	1502.8184	1509.6609	1532.5388	2948.3287	2964.9317	2975.3937	2976.7693	3004.6979	3032.4987	3037.7207	3071.1463	3077.8844	3100.6765	3109.7933	3790.8013
CCCOCCO	CCCOCCO	
InChI=1S/C5H12O2/c1-2-4-7-5-3-6/h6H,2-5H2,1H3	InChI=1S/C5H12O2/c1-2-4-7-5-3-6/h6H,2-5H2,1H3
