13
gdb 793	6.17177	1.44882	1.32144	3.5818	57.7	-0.2661	-0.0126	0.2536	880.8138	0.099907	-340.613712	-340.605857	-340.604913	-340.646583	26.606	
C	 0.0417358336	 1.5196864036	 0.025722849	-0.492752
C	 0.025418485	 0.0219205413	-0.054210674	 0.370055
C	 0.1334341595	-0.7842014881	 1.2278875438	-0.395758
C	 1.3664645527	-0.5066226472	 1.9678799099	 0.261245
N	 2.3385406086	-0.271296261	 2.5462997984	-0.308587
N	-0.0970163771	-0.6894464439	-1.1076599508	-0.153124
O	-0.2408595245	 0.0753737204	-2.2656539087	-0.388861
H	 0.8708102714	 1.8567656736	 0.6558378769	 0.158498
H	 0.1334632311	 1.9621277422	-0.9647200589	 0.16338
H	-0.8840450555	 1.8849625671	 0.4872373959	 0.141398
H	-0.7150542008	-0.5572820297	 1.8870254904	 0.159671
H	 0.0866992609	-1.8481515537	 0.9810397251	 0.172134
H	-0.2823777052	-0.5994482148	-2.951792027	 0.312703
51.9435	63.3417	133.3516	309.9096	313.8759	348.8851	388.5431	398.9052	478.5882	529.9955	675.7962	817.3783	904.8056	935.799	1004.5904	1051.8969	1060.8587	1216.4981	1264.9715	1319.2928	1402.224	1404.934	1449.6513	1480.8186	1486.9088	1739.8516	2363.3266	3030.068	3037.5188	3095.2625	3105.7733	3170.0233	3818.5643
CC(CC#N)=NO	CC(=NO)CC#N	
InChI=1S/C4H6N2O/c1-4(6-7)2-3-5/h7H,2H2,1H3	InChI=1S/C4H6N2O/c1-4(6-7)2-3-5/h7H,2H2,1H3
