17
gdb 4102	3.18941	1.81762	1.23492	0.5562	72.68	-0.2352	0.0109	0.2461	977.5379	0.141812	-363.840516	-363.832645	-363.831701	-363.87272	29.649	
C	-0.0927341842	 1.5847755467	 0.0371949997	-0.385685
C	 0.002379403	 0.0492384055	 0.0155064583	-0.11592
C	 0.7855470567	-0.5061572454	-1.1542272971	-0.061115
C	 1.8192908414	-1.259726357	-0.7815254445	-0.087125
C	 1.9352842575	-1.3783215527	 0.717574074	-0.345168
C	 0.7743407625	-0.5296567493	 1.1972007362	 0.389286
N	 0.4312622273	-0.2813029147	 2.3953838468	-0.222169
O	 1.291719995	-0.9158138721	 3.3121821458	-0.394094
H	 0.9041165203	 2.0362825736	 0.025550963	 0.117495
H	-0.6438519923	 1.9515771198	-0.8349125633	 0.109707
H	-0.6094219823	 1.9180822681	 0.9407270524	 0.133726
H	-1.0222526702	-0.3501918195	 0.0143142592	 0.099844
H	 0.5086517388	-0.2852443679	-2.1792594599	 0.094716
H	 2.5112580459	-1.7500662345	-1.4567927648	 0.096605
H	 1.8463153596	-2.4107477173	 1.0821904363	 0.132333
H	 2.8899818437	-1.0101704964	 1.1163506625	 0.132672
H	 0.9201482475	-0.6461917268	 4.1587254853	 0.304894
70.972	177.9363	210.2584	238.1215	271.2534	336.0416	405.9591	479.4567	515.4193	559.5652	669.2463	731.5093	766.5722	809.6439	901.7145	956.9721	964.7523	981.4015	981.8679	1022.6549	1085.7244	1099.0293	1135.2369	1159.748	1210.053	1284.7972	1299.1076	1319.0014	1368.8146	1395.1395	1412.0259	1459.9576	1493.1103	1498.1334	1684.4098	1758.7915	2997.2217	3019.5994	3036.6885	3038.4826	3106.4576	3123.7408	3183.933	3208.7231	3819.0617
CC1C=CCC1=NO	C[C@H]1C=CCC1=NO	
InChI=1S/C6H9NO/c1-5-3-2-4-6(5)7-8/h2-3,5,8H,4H2,1H3	InChI=1S/C6H9NO/c1-5-3-2-4-6(5)7-8/h2-3,5,8H,4H2,1H3/t5-/m0/s1
