15
gdb 4598	5.48207	1.55545	1.22083	3.5488	74.13	-0.2087	-0.0439	0.1648	958.9218	0.120048	-362.701996	-362.694969	-362.694025	-362.733151	26.621	
C	-0.0220505951	 1.5328856321	-0.0006561837	-0.49138
C	 0.0002594525	 0.0298656309	-0.0038059703	 0.180472
C	-0.0435202961	-0.6865548691	-1.1417597372	 0.004493
O	-0.0257362712	-2.0391612252	-1.1914240296	-0.239622
C	 0.0412953461	-2.8152516404	-0.0321897084	 0.380351
N	 0.0567441015	-4.0839677144	-0.105127933	-0.539374
C	 0.0898777502	-2.0738555047	 1.2129207414	-0.146689
C	 0.0704711596	-0.7259747473	 1.2273201354	-0.125323
H	 0.8768354087	 1.9442611592	 0.4735151451	 0.133809
H	-0.0762448896	 1.9318953098	-1.0170726419	 0.127715
H	-0.8838678676	 1.917967318	 0.5570663658	 0.133816
H	-0.0974856814	-0.2588536938	-2.136254519	 0.127927
H	 0.014733871	-4.3890229739	-1.0778373218	 0.219126
H	 0.1419552617	-2.6701459807	 2.1146286544	 0.12535
H	 0.1076025897	-0.1881095004	 2.1702151228	 0.109328
100.1121	167.7417	278.316	295.2159	364.1162	431.5023	476.561	499.3542	635.0587	720.9825	749.3333	797.93	831.3093	858.9757	885.9605	946.9427	1006.4194	1029.8458	1062.1251	1069.2575	1173.6297	1185.6301	1253.3995	1300.3191	1379.8527	1421.6436	1445.8404	1479.8315	1498.2125	1607.5569	1693.0478	1740.5794	3025.4534	3075.8835	3113.7861	3173.9971	3205.2499	3224.952	3489.2108
CC1=COC(=N)C=C1	CC1=COC(=CC1)[NH]	
InChI=1S/C6H7NO/c1-5-2-3-6(7)8-4-5/h2-4,7H,1H3	InChI=1S/C6H8NO/c1-5-2-3-6(7)8-4-5/h3-4,7H,2H2,1H3
