17
gdb 2396	5.22278	2.01577	1.79133	1.778	64.5	-0.2541	0.0794	0.3335	777.8389	0.147746	-309.696507	-309.689415	-309.688471	-309.727433	26.578	
C	-0.1565010278	 1.5461551423	 0.1593382637	-0.414091
C	-0.1267255438	 0.0410048033	 0.1946341198	-0.022991
O	 1.0720110493	-0.5941632529	-0.2892002656	-0.295598
C	 0.7515064127	-0.7275017314	 1.0835003438	 0.456212
C	 1.6159228144	-0.2386153762	 2.250551439	-0.307419
C	 1.0052083941	-1.39450041	 3.1002158453	-0.211597
C	 0.4731476524	-2.0556019354	 1.7926061907	-0.309479
H	 0.7793508249	 1.9645816583	 0.5381371846	 0.127044
H	-0.3001872358	 1.9041829994	-0.8655437256	 0.129294
H	-0.9840081261	 1.9291181808	 0.7670371946	 0.118561
H	-1.0422537048	-0.4500875717	-0.1434828441	 0.085929
H	 2.6801933734	-0.3882196542	 2.0458098525	 0.114219
H	 1.4666367482	 0.7853093638	 2.6023282073	 0.102603
H	 1.7026717744	-1.9834954473	 3.6977148698	 0.104365
H	 0.1962514362	-1.0478061903	 3.7472797702	 0.106447
H	-0.5540554776	-2.4286129383	 1.7876474933	 0.102423
H	 1.1369145659	-2.8446125602	 1.4262588805	 0.11408
99.921	178.6873	198.3634	224.9884	361.8191	449.2864	468.1303	551.0048	707.6635	778.3503	792.2788	846.5466	904.6419	923.0355	960.2297	968.2351	1029.3331	1041.394	1119.083	1136.4645	1148.1601	1182.979	1206.4781	1224.743	1244.6552	1269.365	1277.0005	1352.66	1406.9458	1467.7404	1471.1405	1480.1682	1489.0803	1499.7832	1526.2702	3034.7197	3054.5693	3058.4234	3073.5077	3079.5697	3097.7309	3103.6168	3108.3304	3124.6605	3131.0948
CC1OC11CCC1	C[C@H]1OC21CCC2	
InChI=1S/C6H10O/c1-5-6(7-5)3-2-4-6/h5H,2-4H2,1H3	InChI=1S/C6H10O/c1-5-6(7-5)3-2-4-6/h5H,2-4H2,1H3/t5-/m1/s1
