11
gdb 1018	9.45643	1.98007	1.63725	4.1333	61.03	-0.2181	0.005	0.2231	696.2961	0.080033	-302.303791	-302.298031	-302.297086	-302.333127	21.6	
C	 0.0413961767	-1.1888500342	-0.0042245507	-0.428486
C	 0.0131254464	 0.0144995068	 0.0026559359	 0.250293
C	-0.0335510012	 1.4294501231	 0.0109200006	 0.154716
C	-1.1587195178	 2.2254265221	 0.0305191942	-0.190648
N	-0.6931543596	 3.5151155177	 0.0311364296	-0.22356
C	 0.6717320606	 3.4549891656	 0.0122414179	 0.002697
N	 1.1060023918	 2.2209353728	-0.0003316047	-0.300037
H	 0.0744623418	-2.249816139	-0.0104044875	 0.186847
H	-2.2085444882	 1.9875396899	 0.0435206235	 0.140598
H	-1.257329997	 4.3483025789	 0.0433142448	 0.272853
H	 1.2865484864	 4.3426146962	 0.0086591565	 0.134727
169.7023	174.6331	463.9728	532.8117	536.2624	557.2864	589.4216	657.9603	660.0588	709.3631	764.5579	826.0419	947.8508	972.4916	1098.4628	1126.4364	1238.0196	1270.376	1349.3919	1442.7995	1530.3167	1563.2697	2238.5418	3253.305	3285.5675	3506.0572	3665.5476
C#CC1=CNC=N1	C#Cc1c[nH]cn1	
InChI=1S/C5H4N2/c1-2-5-3-6-4-7-5/h1,3-4H,(H,6,7)	InChI=1S/C5H4N2/c1-2-5-3-6-4-7-5/h1,3-4H,(H,6,7)
