15
gdb 4179	3.62911	1.86667	1.40354	0.8025	64.86	-0.2387	0.0036	0.2423	871.7481	0.118228	-399.718646	-399.711219	-399.710275	-399.750181	28.159	
O	-0.2082423445	 1.3101162675	 0.1223438943	-0.414483
N	 0.0296789613	-0.0859169447	-0.0131065065	-0.270288
C	-1.0765645656	-0.7015304209	 0.0243495788	 0.417374
C	-1.4345951508	-2.1366980555	-0.0737449639	-0.159345
C	-2.2912892592	-2.4948109378	 1.129522369	-0.27583
C	-2.9336354549	-1.7396681131	 0.0145140079	-0.058768
C	-2.5419488821	-0.2585722479	 0.0776970671	 0.032258
O	-2.9908444577	 0.4508651189	 1.2051164184	-0.43574
H	 0.6832233034	 1.6719111713	 0.08907342	 0.308487
H	-0.9525520254	-2.8874375319	-0.6852674181	 0.109193
H	-2.5523769421	-3.5460979737	 1.1936877711	 0.121204
H	-2.1187037066	-2.0100783079	 2.0843918807	 0.135159
H	-3.7571497518	-2.1352359738	-0.5645248707	 0.099998
H	-2.7963524141	 0.2584802296	-0.8601764098	 0.093104
H	-2.43118417	 1.23356275	 1.2731734018	 0.297676
105.3118	160.3335	223.5675	280.1785	339.6529	381.4482	403.4651	491.2698	573.0126	649.1896	683.6626	773.5861	839.4545	851.5095	911.2593	947.9987	969.4852	1009.6307	1033.6649	1062.5768	1090.1066	1131.2478	1162.7403	1188.4449	1212.4476	1284.2477	1320.4991	1344.1724	1402.7002	1406.562	1489.4097	1785.4118	2990.4344	3132.6845	3204.268	3210.5189	3222.4573	3799.9423	3827.6701
ON=C1C2CC2C1O	O[N][C]1[C@H]2C[C@H]2[C@H]1O	
InChI=1S/C5H7NO2/c7-5-3-1-2(3)4(5)6-8/h2-3,5,7-8H,1H2	InChI=1S/C5H7NO2/c7-5-3-1-2(3)4(5)6-8/h2-3,5,7-8H,1H2/t2-,3+,5+/m0/s1
