15
gdb 1800	3.77074	2.61256	1.80933	1.7933	57.34	-0.2466	-0.0235	0.2232	726.1598	0.122083	-345.658421	-345.650583	-345.649638	-345.690561	27.503	
C	 0.187946742	 1.1240205742	 0.7914497401	-0.481567
C	-0.1065435036	 0.1421543135	-0.3238433429	 0.32644
O	 0.5920191649	 0.042470673	-1.3075914595	-0.30065
C	-1.3511932788	-0.7142363105	-0.1963086706	 0.304958
C	-1.9564741817	-1.1911564443	-1.4941950241	-0.46073
C	-1.5261484204	-1.5017988589	 1.0450192726	-0.217913
O	-2.2661796536	-0.3079432004	 0.8353368593	-0.258161
H	 1.154008253	 1.5941272581	 0.6057955373	 0.140025
H	-0.5986941503	 1.8851892115	 0.8221378447	 0.157184
H	 0.186915018	 0.6428326868	 1.7737393794	 0.139977
H	-1.2108533622	-1.7399386851	-2.0734645355	 0.147696
H	-2.8170424888	-1.8351327599	-1.3000550893	 0.122777
H	-2.2859784204	-0.3408393285	-2.0988009812	 0.134494
H	-2.0948724907	-2.4290331641	 0.9878198714	 0.125805
H	-0.7791557975	-1.4646297953	 1.8363374582	 0.119665
63.4692	108.7186	164.1698	239.1286	270.7665	335.3368	373.0128	469.698	510.9523	610.4614	664.0302	817.4673	853.4596	935.0562	948.6521	1028.3497	1042.5382	1105.6359	1138.8301	1145.4981	1166.001	1318.0946	1366.5201	1387.6913	1410.4561	1453.4465	1469.3369	1477.3912	1493.6375	1527.717	1801.5631	3049.4391	3052.39	3084.019	3111.4189	3122.0066	3142.4787	3157.8341	3171.4464
CC(=O)C1(C)CO1	CC(=O)[C@@]1(C)CO1	
InChI=1S/C5H8O2/c1-4(6)5(2)3-7-5/h3H2,1-2H3	InChI=1S/C5H8O2/c1-4(6)5(2)3-7-5/h3H2,1-2H3/t5-/m1/s1
