14
gdb 3349	5.69157	2.85855	2.07487	3.6718	57.59	-0.2479	0.0183	0.2662	621.3618	0.115969	-324.551432	-324.546003	-324.545059	-324.580464	21.01	
C	 0.0549647157	 1.5538515022	-0.1177228726	-0.124675
O	 1.499733403	 1.3683708881	 0.1811955885	-0.272787
C	 1.1954760678	 0.1039087583	 0.6060919054	 0.433754
N	 1.5992017539	-0.6662873283	 1.5184121111	-0.305263
C	 0.4265080405	-1.5783189352	 1.7047315763	-0.154239
C	-0.8340015566	-0.7840932782	 1.1830025269	-0.259604
C	-0.1831445217	 0.0221758117	 0.0483113967	-0.134806
H	-0.396606429	 2.1907459809	 0.6472737468	 0.131564
H	-0.0814802838	 1.9716406551	-1.1159802639	 0.129669
H	 0.5678056559	-2.5159209597	 1.1508172555	 0.10888
H	 0.3425030162	-1.8334697113	 2.7639687297	 0.117175
H	-1.6555202448	-1.4315897875	 0.8679875549	 0.106198
H	-1.198483082	-0.1256899967	 1.9785667469	 0.114964
H	-0.2509255752	-0.4723939396	-0.9241606421	 0.109168
187.6125	282.8177	334.9132	472.7702	618.4812	671.7013	740.924	796.2496	843.9423	883.5216	914.4764	946.2847	960.1635	992.4716	1073.9798	1108.2861	1145.9435	1155.2514	1190.5697	1214.5518	1234.6992	1286.6122	1305.7141	1345.0809	1364.721	1482.7227	1497.0342	1503.4214	1774.3056	3022.3256	3053.575	3067.1371	3077.5207	3097.0752	3115.3185	3142.4948
C1OC2=NCCC12	C1O[C]2[N]CC[C@@H]12	
InChI=1S/C5H7NO/c1-2-6-5-4(1)3-7-5/h4H,1-3H2	InChI=1S/C5H7NO/c1-2-6-5-4(1)3-7-5/h4H,1-3H2/t4-/m0/s1
