9
gdb 211	9.6847	3.7549	2.70582	0.4508	39.79	-0.2242	0.001	0.2252	435.5044	0.063161	-321.252793	-321.24821	-321.247265	-321.280543	16.639	
O	 0.1162976117	 1.3505544181	-0.0681299079	-0.424383
C	 0.0681953682	 0.0068946175	-0.079379807	 0.324615
C	-0.0386930933	-0.8264088611	-1.1453532167	-0.135225
O	-0.0475743826	-2.1104085268	-0.6437639835	-0.134892
C	 0.0547229829	-1.9595592046	 0.6845456549	 0.091968
N	 0.1272247774	-0.7290683936	 1.0880960918	-0.33542
H	 0.1929395089	 1.6166283776	 0.8562745527	 0.308461
H	-0.1119867448	-0.7082467877	-2.2097918075	 0.149685
H	 0.0666945218	-2.8566078395	 1.2829652131	 0.155192
324.7043	366.6	420.7497	637.2484	672.331	699.4585	736.0356	836.589	936.0595	1010.0687	1078.5649	1145.1913	1203.4265	1276.3215	1332.0727	1395.7914	1552.4547	1696.767	3278.3219	3320.1408	3805.6463
OC1=COC=N1	Oc1cocn1	
InChI=1S/C3H3NO2/c5-3-1-6-2-4-3/h1-2,5H	InChI=1S/C3H3NO2/c5-3-1-6-2-4-3/h1-2,5H
