12
gdb 852	7.5174	2.03418	1.60388	2.7516	52.68	-0.1779	0.0453	0.2232	710.6391	0.090519	-360.528914	-360.522283	-360.521339	-360.559077	24.468	
N	 0.0524769365	 1.3696823135	-0.1497703971	-0.592198
C	-0.0718564292	-0.009127568	-0.0652648494	 0.420565
C	-1.143354337	-0.8541204365	-0.1072015183	-0.426337
C	-0.577887388	-2.176798935	-0.0652875146	 0.326993
O	-1.2481178904	-3.3605250249	-0.0799150947	-0.442543
C	 0.7704209964	-2.0435435419	-0.0000761497	-0.138054
O	 1.0852199755	-0.6919711491	 0.0005865596	-0.178787
H	 0.8985385291	 1.7066507024	 0.2917045936	 0.256477
H	-0.7570899404	 1.8632814158	 0.1992312254	 0.255237
H	-2.1862186123	-0.5838032519	-0.1637590708	 0.090803
H	-2.1882673215	-3.1785017848	-0.1606078836	 0.299062
H	 1.5954729314	-2.7290378795	 0.0497327498	 0.128781
175.5043	181.2656	217.6974	317.0408	371.2158	468.9807	585.9119	598.9094	641.1195	667.9825	698.8488	730.9372	766.7068	964.2925	1006.7573	1086.6195	1136.1452	1186.0553	1208.8852	1296.4205	1378.168	1476.6967	1610.8377	1653.7797	1696.6405	3249.0466	3312.3605	3548.6745	3649.5748	3850.3346
NC1=CC(O)=CO1	Nc1cc(O)co1	
InChI=1S/C4H5NO2/c5-4-1-3(6)2-7-4/h1-2,6H,5H2	InChI=1S/C4H5NO2/c5-4-1-3(6)2-7-4/h1-2,6H,5H2
