13
gdb 1451	9.32708	1.38782	1.21736	2.2159	54.6	-0.268	0.0052	0.2731	932.7949	0.101303	-377.815601	-377.807799	-377.806855	-377.848312	25.52	
C	 0.0890019276	 1.4058066212	-0.0267626535	-0.33309
N	-0.1184735987	-0.0199743303	-0.1756600287	-0.355983
C	-1.3041149133	-0.6110766066	 0.0858897575	 0.542251
O	-2.3184086676	-0.0744131832	 0.4626453773	-0.397697
O	-1.1739171712	-1.9695651683	-0.1518484936	-0.231408
C	-2.2785815969	-2.747619873	 0.0583357935	 0.121474
N	-2.1803498007	-3.9846531798	-0.1521468269	-0.432405
H	 0.8687212576	 1.6178485394	 0.7125720617	 0.134278
H	 0.3717972906	 1.8669183793	-0.979102463	 0.134285
H	-0.8499988198	 1.8431417799	 0.3134196661	 0.173793
H	 0.6327575043	-0.6153051647	-0.4833404544	 0.264855
H	-3.1398171828	-2.1703575874	 0.3960304175	 0.143248
H	-3.0727268091	-4.4354673466	 0.0437343065	 0.236399
70.0618	90.4228	128.092	162.5165	183.5925	330.5594	446.6944	502.3635	541.8403	758.7762	769.9077	847.8543	952.1128	1026.5113	1071.4036	1153.725	1158.98	1179.3031	1242.2204	1282.4661	1387.5005	1448.9222	1497.2305	1497.4565	1565.8281	1749.9351	1843.2262	3033.1391	3086.8333	3136.3341	3157.2746	3510.154	3653.6761
CNC(=O)OC=N	CNC(=O)O[CH][NH]	
InChI=1S/C3H6N2O2/c1-5-3(6)7-2-4/h2,4H,1H3,(H,5,6)	InChI=1S/C3H6N2O2/c1-5-3(6)7-2-4/h2,4H,1H3,(H,5,6)
