17
gdb 1915	6.02812	2.05723	1.8213	1.8176	64.3	-0.2433	0.0925	0.3357	762.781	0.147372	-309.693538	-309.686393	-309.685449	-309.724128	27.121	
C	-0.0280555271	 1.5845295925	 0.088177655	-0.402778
C	 0.0251327896	 0.0650158228	 0.0236815056	 0.014281
C	 1.0461012502	-0.6099075965	-0.9686315556	-0.310607
C	 1.6938284815	-1.3139001323	 0.2377491834	 0.427656
C	 2.4233098795	-2.6166269149	 0.2769420352	-0.499755
O	 2.1303963244	-0.2646970623	 1.1204283331	-0.288496
C	 0.7525081122	-0.6654488782	 1.1680542761	-0.049288
H	 0.9678551006	 1.98805838	 0.2914414977	 0.133119
H	-0.3834649573	 2.007955477	-0.8572674038	 0.111937
H	-0.7037179505	 1.925181619	 0.8807304962	 0.111097
H	-0.9748476447	-0.356164796	-0.1235768981	 0.072922
H	 0.5644889001	-1.2944224403	-1.6716194055	 0.100427
H	 1.7119655121	 0.0645941233	-1.5138762421	 0.103442
H	 3.381894189	-2.5417990573	-0.2494361633	 0.129638
H	 2.6257579562	-2.9106783387	 1.3103050935	 0.132835
H	 1.837232328	-3.4054692389	-0.2058671637	 0.122128
H	 0.3683915962	-0.9844737191	 2.1318175462	 0.09144
141.9558	197.276	222.8667	240.402	326.4765	368.6945	421.4097	553.7929	640.2865	707.5959	798.3135	856.241	886.3774	893.0042	930.8646	986.5214	1010.9509	1045.9428	1065.4636	1110.4536	1143.3783	1188.0979	1211.8911	1224.1286	1261.8345	1288.0838	1361.5316	1399.7183	1407.3822	1456.9573	1477.869	1486.5117	1492.7192	1498.867	1504.3717	3030.9865	3032.2936	3051.6277	3059.5425	3092.8606	3093.5213	3114.237	3118.2884	3119.814	3167.6129
CC1CC2(C)OC12	C[C@H]1C[C@@]2(C)O[C@@H]12	
InChI=1S/C6H10O/c1-4-3-6(2)5(4)7-6/h4-5H,3H2,1-2H3	InChI=1S/C6H10O/c1-4-3-6(2)5(4)7-6/h4-5H,3H2,1-2H3/t4-,5-,6+/m0/s1
