13
gdb 2085	5.03048	2.70264	1.87228	5.7583	50.52	-0.2791	0.0416	0.3207	652.3257	0.103543	-381.635659	-381.62967	-381.628726	-381.665914	21.338	
O	 0.0078814366	 0.0794953115	 0.5162102354	-0.358859
C	-0.014050641	 1.1490752415	-0.0133997453	 0.478287
O	-1.1902512595	 1.75594372	-0.2885591369	-0.255821
C	-1.2721480536	 3.0084369475	-0.9856196954	-0.059166
C	-0.0608644575	 3.8737350364	-0.6967951215	-0.245423
C	 1.1656790195	 3.0421837684	-1.0184924667	-0.059134
O	 1.1370842498	 1.7877891031	-0.3205985068	-0.255847
H	-1.3570716575	 2.8045446477	-2.0610568586	 0.119914
H	-2.2058789425	 3.4660833343	-0.6511583526	 0.131456
H	-0.0816441028	 4.7789720718	-1.3111849854	 0.121887
H	-0.0508818297	 4.1749736395	 0.3560100818	 0.131332
H	 1.2274572749	 2.8407805809	-2.0959711214	 0.11992
H	 2.0950175234	 3.5254330175	-0.7087069965	 0.131454
99.4702	121.7179	321.6637	444.8086	484.1361	550.3852	677.3609	763.7276	784.183	904.256	915.6371	961.0632	992.1303	1089.7136	1154.8552	1156.8148	1176.9962	1234.3951	1267.7578	1301.8077	1379.377	1422.5644	1431.67	1474.808	1514.7926	1523.8542	1881.1318	3022.6426	3027.2376	3053.7069	3101.2648	3103.8036	3110.2371
O=C1OCCCO1	O=C1OCCCO1	
InChI=1S/C4H6O3/c5-4-6-2-1-3-7-4/h1-3H2	InChI=1S/C4H6O3/c5-4-6-2-1-3-7-4/h1-3H2
