21
gdb 4013	3.23448	1.05857	0.87431	0.6297	78.63	-0.2383	0.0158	0.2541	1400.8011	0.186636	-366.2381	-366.227998	-366.227054	-366.273475	36.004	
C	-0.0914087885	 1.5707307028	 0.0211755528	-0.379149
C	-0.1046293282	 0.0406790745	-0.0247273611	-0.164467
C	 0.724467068	-0.5212797204	-1.1951970862	-0.257379
C	 0.7611581823	-2.0281372104	-1.2326800066	 0.356315
C	 1.5935430869	-2.7810928912	-0.2223820799	-0.263418
C	 2.9526870183	-3.2121710307	-0.8059001991	-0.374848
N	 0.0745093432	-2.5809818694	-2.1596663452	-0.177576
O	 0.1625679155	-3.9875226859	-2.1156235193	-0.403001
H	 0.9273329488	 1.9550133152	 0.1449253865	 0.113747
H	-0.4950688026	 1.9976656386	-0.9034689674	 0.117679
H	-0.6932936346	 1.9483792923	 0.8534822591	 0.113327
H	 0.2742062923	-0.3566363913	 0.9250945268	 0.099628
H	-1.1351060611	-0.3214665313	-0.1200849871	 0.108803
H	 0.3112231138	-0.1597457392	-2.1416907667	 0.113875
H	 1.7531519953	-0.1405431724	-1.1202183384	 0.099446
H	 1.7544747598	-2.1494716239	 0.6570378108	 0.096832
H	 1.0441547668	-3.6694413734	 0.1018264879	 0.127047
H	 3.5447823897	-3.7397571155	-0.0519803446	 0.113127
H	 2.8048615563	-3.8790375398	-1.6581608239	 0.140853
H	 3.5331379431	-2.3475409497	-1.1438944251	 0.115256
H	-0.406699705	-4.2443638589	-2.8480255533	 0.303905
65.5339	76.2665	90.369	141.0996	217.1901	235.8316	253.6209	305.8477	339.1514	344.7046	386.5339	425.3174	601.1442	702.36	748.2817	775.695	806.4927	878.0976	897.9832	972.9025	989.4933	1040.7695	1057.4745	1082.6386	1113.0571	1132.7093	1240.707	1261.8404	1295.1147	1306.497	1323.609	1353.5163	1375.6793	1403.4179	1409.2268	1412.6559	1473.0666	1484.6019	1492.8907	1498.3031	1500.4133	1508.7831	1510.5011	1726.2606	3008.3861	3027.5428	3030.5183	3040.2576	3050.0064	3058.7062	3086.5082	3092.866	3100.25	3103.9016	3108.122	3133.0383	3826.0387
CCCC(CC)=NO	CCCC(=NO)CC	
InChI=1S/C6H13NO/c1-3-5-6(4-2)7-8/h8H,3-5H2,1-2H3	InChI=1S/C6H13NO/c1-3-5-6(4-2)7-8/h8H,3-5H2,1-2H3
