17
gdb 1613	3.94854	1.91568	1.64767	4.1669	64.73	-0.2273	0.029	0.2563	833.0949	0.147068	-305.897998	-305.889567	-305.888623	-305.930279	29.885	
C	-0.0911033952	 1.597623403	 0.1701040513	-0.400629
C	-0.0001314498	 0.0667828753	-0.0397252756	-0.108921
C	-1.3547516071	-0.518155828	-0.0024252499	 0.291482
N	-2.4255158159	-0.9504995197	 0.0348015917	-0.328328
N	 0.6974440896	-0.3983428449	-1.2373867087	-0.046621
C	 0.1276266032	 0.0530057139	-2.4982001175	-0.336598
C	 2.1375722892	-0.2190151803	-1.1710083534	-0.325772
H	 0.910848607	 2.0344026481	 0.1805955126	 0.128341
H	-0.6735766738	 2.0735518563	-0.6220600561	 0.139692
H	-0.5728726858	 1.8197134025	 1.1259158981	 0.138971
H	 0.5400114526	-0.3583718937	 0.8159160699	 0.127297
H	 0.2883656688	 1.1258171487	-2.7048474854	 0.099341
H	 0.5836188494	-0.5139665272	-3.3156934607	 0.126698
H	-0.947873125	-0.1442387753	-2.5113648138	 0.144808
H	 2.5250351661	-0.6472066412	-0.2408349094	 0.121812
H	 2.601585621	-0.7534292815	-2.0058332647	 0.128392
H	 2.4672662559	 0.834458294	-1.2283793483	 0.100035
83.5607	160.006	208.0705	232.6493	236.3233	251.3458	263.0494	389.1546	393.8947	436.3368	571.2231	586.8933	773.2736	857.0916	963.9759	1048.3681	1074.7568	1078.1107	1123.3739	1130.226	1186.4718	1228.1317	1311.326	1327.6868	1383.4381	1398.4537	1446.5573	1472.9166	1480.6256	1488.2401	1490.1698	1501.2657	1511.7044	1521.8736	2359.7585	2940.9138	2952.6317	3030.5202	3052.4404	3058.3924	3068.9655	3103.0061	3115.6824	3126.9508	3135.4319
CC(C#N)N(C)C	C[C@@H](C#N)N(C)C	
InChI=1S/C5H10N2/c1-5(4-6)7(2)3/h5H,1-3H3	InChI=1S/C5H10N2/c1-5(4-6)7(2)3/h5H,1-3H3/t5-/m0/s1
