13
gdb 583	9.03104	2.42288	2.07708	3.5897	50.79	-0.2469	0.0288	0.2757	602.5288	0.108445	-286.498633	-286.492413	-286.491469	-286.528974	21.624	
O	 0.1678229865	 0.5025034634	-1.2387393088	-0.313462
C	 0.1232767316	 1.3429314122	-0.3689530164	 0.151324
N	 1.187569846	 1.7682322415	 0.370687903	-0.283494
C	 2.4907566527	 1.1798537318	 0.2705408396	 0.063339
C	 3.3306830897	 1.4760045185	-0.9413630068	-0.235298
C	 3.6856062247	 2.0880557212	 0.3902276406	-0.293023
H	-0.8071028848	 1.877333405	-0.0851760402	 0.068721
H	 1.0007759707	 2.3886530186	 1.1436002679	 0.246867
H	 2.5749180094	 0.1812153066	 0.6921261936	 0.106616
H	 3.9483333945	 0.6755852134	-1.3308922817	 0.123119
H	 2.8956619884	 2.1213060467	-1.6943060762	 0.12911
H	 3.4955819083	 3.1480827616	 0.5210369268	 0.115317
H	 4.5517483122	 1.7170965196	 0.9259252287	 0.120866
45.1751	176.0578	235.0744	366.2083	426.5625	528.0578	739.6809	783.2927	822.2715	859.5809	963.9234	1007.3145	1034.519	1062.3687	1078.7836	1123.2962	1141.3574	1193.2119	1214.6827	1270.565	1396.8102	1432.8104	1462.6904	1498.4754	1507.1155	1816.2474	2918.6016	3129.8799	3136.6156	3152.2686	3220.3728	3242.7364	3615.4097
O=CNC1CC1	O=CNC1CC1	
InChI=1S/C4H7NO/c6-3-5-4-1-2-4/h3-4H,1-2H2,(H,5,6)	InChI=1S/C4H7NO/c6-3-5-4-1-2-4/h3-4H,1-2H2,(H,5,6)
