17
gdb 3259	3.4114	3.29154	1.78693	0.654	72.85	-0.2097	-0.0196	0.1902	731.1849	0.151159	-272.600604	-272.594192	-272.593248	-272.631206	24.671	
C	-0.0274684085	 1.5067270747	-0.0504932945	-0.201988
C	 1.3578483161	 2.1642700692	 0.006850799	-0.243674
C	 2.0991574177	 2.0427956995	 1.3089572545	-0.066968
C	 2.0116003056	 1.0725843617	 2.2310951521	-0.063686
C	 1.2246706877	-0.1588085217	 2.2320544613	-0.063682
C	 0.3803735632	-0.6468493778	 1.3110268799	-0.066974
C	-0.0421049319	-0.0265911492	 0.0085018155	-0.243674
H	-0.6432794633	 1.900841743	 0.7662906308	 0.107367
H	-0.5124850908	 1.8159522214	-0.983775259	 0.092609
H	 1.9865419896	 1.7719357671	-0.8073336755	 0.110464
H	 1.2416594228	 3.232299086	-0.2189198311	 0.101437
H	 2.7923026841	 2.8556780832	 1.5171024492	 0.0844
H	 2.6383888381	 1.190771281	 3.1128543651	 0.079034
H	 1.3812953827	-0.7762683845	 3.1144054523	 0.079034
H	-0.0660204573	-1.6170965799	 1.5205604603	 0.0844
H	-1.0602500789	-0.370117221	-0.2162787534	 0.101436
H	 0.5775693433	-0.4331430128	-0.8056215863	 0.110464
49.0428	241.9466	345.1753	367.2721	384.2575	524.3596	585.0483	702.4844	768.0014	782.4393	850.5211	880.3298	889.6234	912.0112	961.971	1004.8674	1018.2865	1060.91	1076.4245	1092.9123	1170.0776	1245.4811	1280.0236	1286.6821	1286.7694	1375.9193	1377.1658	1391.8902	1431.926	1460.0931	1464.3058	1473.925	1488.9412	1686.0895	1714.5598	2988.3618	2995.2619	3022.4177	3032.8113	3043.1413	3071.2777	3124.1776	3133.1574	3148.631	3160.1681
C1CC=CC=CC1	C1CC=CC=CC1	
InChI=1S/C7H10/c1-2-4-6-7-5-3-1/h1-4H,5-7H2	InChI=1S/C7H10/c1-2-4-6-7-5-3-1/h1-4H,5-7H2
