15
gdb 4967	3.31419	2.24075	1.34815	2.9639	69.97	-0.2445	-0.0042	0.2403	871.187	0.120753	-362.73184	-362.724907	-362.723962	-362.762684	26.502	
C	 0.0285116735	 1.5094699904	 0.0487240162	-0.542652
C	 0.0234159476	 0.0035541497	 0.0291335402	 0.15148
C	-0.0514164136	-0.7193423115	-1.1613060377	-0.049514
N	-0.0608065429	-2.0494484228	-1.2589397213	-0.287653
C	 0.0078337086	-2.7304026985	-0.1102981714	 0.006372
C	 0.0860582009	-2.1359723243	 1.1410992067	-0.202224
C	 0.0940872078	-0.744798599	 1.2130416931	 0.326458
O	 0.1708358684	-0.1710349399	 2.4401802857	-0.427653
H	 0.9448243055	 1.9155091122	 0.498154541	 0.133498
H	-0.0341718102	 1.9078348129	-0.966828457	 0.142419
H	-0.8224220042	 1.9200233194	 0.6089420477	 0.133433
H	-0.1076462538	-0.1708171507	-2.1009418751	 0.099607
H	-0.0000346022	-3.8146724829	-0.1931552414	 0.107698
H	 0.1402611601	-2.7229710749	 2.0502005417	 0.106479
H	 0.1679388145	 0.7875348598	 2.3481358917	 0.302251
163.3497	176.2068	270.1516	290.4211	380.861	432.6442	438.0434	529.7472	585.428	613.0881	770.4208	775.0633	861.0499	865.2852	950.3893	991.3743	1005.9892	1062.752	1065.5236	1162.473	1217.9257	1247.7252	1316.0402	1332.578	1365.6732	1413.8129	1445.82	1487.4214	1500.0803	1528.9308	1615.9718	1651.6998	3006.7336	3051.7113	3114.8398	3132.5913	3156.0355	3206.3312	3822.4708
CC1=CN=CC=C1O	Cc1cnccc1O	
InChI=1S/C6H7NO/c1-5-4-7-3-2-6(5)8/h2-4H,1H3,(H,7,8)	InChI=1S/C6H7NO/c1-5-4-7-3-2-6(5)8/h2-4H,1H3,(H,7,8)
