11
gdb 916	5.80101	2.9884	1.97234	4.7952	56.62	-0.2368	-0.069	0.1678	597.0822	0.080364	-339.455981	-339.45062	-339.449675	-339.485369	19.747	
N	-0.0310107549	 1.3174417044	 0.0098513894	-0.510752
C	-0.049236782	 0.054827518	 0.0031132681	 0.432912
O	 1.1949205457	-0.6502148201	-0.0079100832	-0.222248
C	 1.2102715427	-1.9859548468	-0.0152758335	 0.104414
C	 0.0826691245	-2.7200123027	-0.0126900005	-0.204671
C	-1.1459609577	-1.9744834464	-0.0013673873	 0.028506
N	-1.2166876078	-0.684068958	 0.0060481431	-0.254611
H	 0.9281874634	 1.6615976035	 0.0060808989	 0.228409
H	 2.2202106239	-2.38266516	-0.0233432166	 0.146669
H	 0.1064837077	-3.7999716095	-0.0187336146	 0.122195
H	-2.0938017355	-2.5130257624	 0.0012768062	 0.129178
81.807	359.5623	463.2647	492.5747	558.7364	623.6772	748.3588	772.6476	786.8017	853.0898	942.474	966.1707	984.4081	1006.3932	1050.0462	1099.4385	1215.6415	1293.9704	1415.1582	1446.913	1584.9591	1697.3688	1749.3766	3131.8768	3195.8519	3244.3259	3510.812
N=C1OC=CC=N1	[NH]C1=NC=CCO1	
InChI=1S/C4H4N2O/c5-4-6-2-1-3-7-4/h1-3,5H	InChI=1S/C4H5N2O/c5-4-6-2-1-3-7-4/h1-2,5H,3H2
