14
gdb 3004	6.30379	1.91604	1.56163	2.2184	55.3	-0.2574	0.0324	0.2898	784.5381	0.112985	-361.717972	-361.710635	-361.709691	-361.749881	24.717	
C	 0.031392138	 1.2373299213	 0.1517706744	-0.229899
O	-0.0347916923	-0.150718133	-0.1906905252	-0.238417
C	-1.271433109	-0.6870924867	-0.1283952458	 0.47461
O	-2.2641478655	-0.0906447689	 0.2102253504	-0.390713
N	-1.2415934913	-2.0010511048	-0.5786637874	-0.120317
C	-0.455837457	-3.043448914	 0.057832901	-0.222085
C	-1.9536480277	-3.047398665	 0.1212763733	-0.216079
H	 1.0823805171	 1.5131390863	 0.0620804765	 0.131786
H	-0.5785906381	 1.8337216142	-0.5315412139	 0.141754
H	-0.3217793923	 1.4039949733	 1.1726799857	 0.13825
H	 0.0672637917	-3.7159066161	-0.6156812499	 0.129405
H	 0.0878204632	-2.7833021141	 0.96183342	 0.133482
H	-2.425049951	-2.7821603395	 1.063565592	 0.139006
H	-2.5227873358	-3.7274031331	-0.5053857111	 0.129218
83.1331	104.8609	136.8241	199.9326	253.7892	325.0695	516.6468	587.5902	784.8562	815.9711	831.2754	941.5949	977.2319	1045.5213	1073.183	1132.4319	1137.8625	1171.929	1176.248	1181.9997	1211.327	1237.2812	1393.9054	1477.0739	1481.0019	1499.2278	1501.0405	1526.9505	1813.9085	3050.1872	3114.7452	3119.4521	3124.2542	3155.8876	3198.3163	3212.0149
COC(=O)N1CC1	COC(=O)N1CC1	
InChI=1S/C4H7NO2/c1-7-4(6)5-2-3-5/h2-3H2,1H3	InChI=1S/C4H7NO2/c1-7-4(6)5-2-3-5/h2-3H2,1H3
