16
gdb 4936	6.44662	1.17351	1.01855	2.9092	68.21	-0.1853	0.0489	0.2342	1113.6809	0.132035	-379.944351	-379.936204	-379.93526	-379.977071	29.899	
N	 0.1870459223	 1.4308193746	 0.045735189	-0.607495
C	-0.045101756	 0.0398417996	 0.008578694	 0.302175
C	-1.1892912959	-0.7246007902	 0.0693886498	-0.332495
C	-0.8056957977	-2.090920639	-0.1061209547	 0.236456
C	-1.702725969	-3.2938159319	-0.0971912194	-0.158576
O	-1.1728834587	-4.3850298393	-0.8402344478	-0.414738
C	 0.5611980016	-2.1110296609	-0.2636425941	-0.183203
N	 1.0116084098	-0.8108355078	-0.1949002012	-0.269125
H	-0.6764412787	 1.937683267	-0.1054737058	 0.246709
H	 0.5664449219	 1.7341323244	 0.9386015252	 0.243368
H	-2.1890876484	-0.3519306518	 0.2378650482	 0.079915
H	-1.8391992773	-3.6836932387	 0.9194642804	 0.115098
H	-2.704883582	-3.0098097516	-0.4588715855	 0.086048
H	-0.9314565003	-4.0363184348	-1.7052862076	 0.27553
H	 1.2385499187	-2.9371718266	-0.4010522909	 0.123072
H	 1.9476251399	-0.498153873	-0.3865147495	 0.257262
61.7087	130.2436	161.3005	214.987	295.5011	345.0118	373.2409	451.2011	495.2523	622.0043	653.9686	679.1179	713.1808	745.838	778.2528	831.6924	976.9708	995.0977	1009.1893	1060.9045	1120.4921	1149.8474	1187.2284	1205.9014	1266.8651	1314.614	1366.1657	1415.6217	1441.237	1476.376	1508.9593	1552.827	1626.955	1657.0267	2964.3542	3034.8312	3235.0484	3274.6685	3487.7807	3595.3353	3678.5327	3801.3755
NC1=CC(CO)=CN1	Nc1cc(CO)c[nH]1	
InChI=1S/C5H8N2O/c6-5-1-4(3-8)2-7-5/h1-2,7-8H,3,6H2	InChI=1S/C5H8N2O/c6-5-1-4(3-8)2-7-5/h1-2,7-8H,3,6H2
