12
gdb 994	3.99575	3.21991	1.78313	2.9398	51.69	-0.1861	0.0534	0.2395	646.5172	0.090062	-360.531175	-360.524066	-360.523122	-360.562402	25.271	
O	 0.066754827	 1.3803670377	-0.0716528698	-0.460222
C	 0.0518951467	 0.0161742874	-0.0500170275	 0.258266
C	-0.034119839	-0.821618058	-1.1370998409	-0.163599
N	-0.0141885178	-2.1128370919	-0.6591308761	-0.241376
C	 0.0805318916	-2.1146250123	 0.7141854897	-0.204523
C	 0.1236174116	-0.7973153409	 1.1123167035	 0.186628
O	 0.211900684	-0.2310780211	 2.3583848838	-0.467624
H	 0.145020481	 1.6764508718	 0.8421237433	 0.302345
H	-0.1041611364	-0.6005752906	-2.1880979576	 0.119499
H	-0.0632367157	-2.9350899349	-1.2304583273	 0.26165
H	 0.1087087182	-3.0300602123	 1.2817697963	 0.110325
H	 0.3280393289	-0.921452865	 3.0167798426	 0.29863
51.7682	201.3641	249.8536	262.827	301.5402	389.6969	491.1615	584.5038	610.5558	641.0616	692.2057	720.1029	761.4169	900.2004	1065.2587	1107.7788	1163.0667	1197.6378	1257.8613	1335.756	1383.6266	1478.6019	1484.3347	1605.8224	1673.4839	3263.3376	3282.281	3713.8956	3812.3095	3849.3409
OC1=CNC=C1O	Oc1c[nH]cc1O	
InChI=1S/C4H5NO2/c6-3-1-5-2-4(3)7/h1-2,5-7H	InChI=1S/C4H5NO2/c6-3-1-5-2-4(3)7/h1-2,5-7H
