13
gdb 3697	7.55069	2.00627	1.60085	2.6279	55.64	-0.2146	0.0456	0.2602	736.919	0.102772	-340.660793	-340.654071	-340.653127	-340.691202	24.407	
C	-0.0263455598	 1.4768238329	-0.0287722212	-0.488241
C	 0.0041636874	-0.0168251559	 0.0471320333	 0.374118
N	-0.119132674	-0.7477874557	-1.0546680478	-0.295319
N	-0.0477915327	-2.035689157	-0.6174403803	-0.251836
C	 0.1157087423	-2.1169635109	 0.7196015498	 0.45858
O	 0.2022132407	-3.3394382403	 1.2885814518	-0.429168
C	 0.156268813	-0.8274196885	 1.2048801982	-0.437526
H	 0.9021711406	 1.9167325939	 0.3519507613	 0.125093
H	-0.1568403018	 1.7905099592	-1.0666836017	 0.139045
H	-0.8487737898	 1.8917780279	 0.5645548518	 0.125092
H	-0.1158301739	-2.7984270342	-1.2685062557	 0.274791
H	 0.3155580456	-3.2291041992	 2.2375209673	 0.312927
H	 0.2762637322	-0.5158940023	 2.2300003132	 0.092445
109.9128	198.9136	255.9727	288.8827	350.1091	448.3272	460.1072	600.5028	683.8455	688.922	743.7163	766.6887	985.3917	1001.3949	1056.0751	1064.9495	1150.6126	1169.8795	1187.2122	1345.1823	1404.9589	1433.6527	1483.1117	1487.3178	1505.8098	1575.572	1628.2586	3032.9204	3083.498	3131.1712	3256.5807	3685.8618	3846.2328
CC1=NNC(O)=C1	Cc1n[nH]c(O)c1	
InChI=1S/C4H6N2O/c1-3-2-4(7)6-5-3/h2H,1H3,(H2,5,6,7)	InChI=1S/C4H6N2O/c1-3-2-4(7)6-5-3/h2H,1H3,(H2,5,6,7)
