17
gdb 1545	4.96466	1.44604	1.19112	1.313	67.42	-0.252	0.0414	0.2934	1022.7847	0.144989	-309.678054	-309.669245	-309.668301	-309.711706	30.817	
C	-0.0342017863	 1.5153472033	 0.0742819316	-0.384116
C	 0.0953191104	 0.004954959	-0.0296286349	-0.031375
O	 0.6719945866	-0.4691015808	 1.1742290109	-0.254096
C	 0.7759422402	-1.8854254895	 1.2620731926	-0.033604
C	 2.0071127773	-2.4204593194	 0.5121211698	-0.393558
C	 0.8262965606	-2.2471822948	 2.679805567	 0.322396
C	 0.8837204761	-2.5757985556	 3.833653248	-0.445129
H	 0.9481679472	 1.9748055712	 0.2149060384	 0.128653
H	-0.4813953756	 1.9226645419	-0.8374756054	 0.113828
H	-0.6642046718	 1.7875155901	 0.9255109335	 0.129791
H	-0.8936570661	-0.4593538271	-0.1816699153	 0.087955
H	 0.7153318031	-0.2632255518	-0.8995498382	 0.088468
H	-0.1295279149	-2.3403331924	 0.8252111266	 0.09293
H	 2.9143907329	-1.9721133678	 0.9241150744	 0.135819
H	 2.0727551033	-3.5069163261	 0.6164797695	 0.127235
H	 1.9447150436	-2.1807050521	-0.5528615447	 0.117798
H	 0.9252785834	-2.8564475381	 4.8570019362	 0.197006
43.1301	88.0095	143.6787	203.5155	229.1339	245.4869	303.8875	363.3749	437.9681	541.3716	559.0023	621.7022	667.3124	818.1024	831.6896	877.9249	962.138	1042.7737	1094.4112	1110.4365	1140.8509	1156.9094	1186.8986	1295.5399	1342.5263	1354.2507	1398.7071	1402.3319	1435.5817	1482.349	1488.8444	1491.6258	1499.9516	1528.9118	2243.0965	2953.672	2962.2855	2992.0085	3045.8129	3048.8897	3119.8497	3122.8557	3124.5776	3134.4374	3505.1032
CCOC(C)C#C	CCO[C@@H](C)C#C	
InChI=1S/C6H10O/c1-4-6(3)7-5-2/h1,6H,5H2,2-3H3	InChI=1S/C6H10O/c1-4-6(3)7-5-2/h1,6H,5H2,2-3H3/t6-/m0/s1
