5
gdb 24	0.	4.5793222	4.5793222	3.792	32.66	-0.3102	-0.0543	0.2559	260.1896	0.027259	-169.557758	-169.553764	-169.55282	-169.581024	12.93	
C	 0.0151038958	 0.	 1.	 0.279352
C	 1.3823314931	 0.	 1.	 0.250103
C	-1.1886252462	 0.	 1.	-0.437857
H	-2.2517720115	 0.	 1.	 0.234135
N	 2.5429618689	 0.	 1.	-0.325734
245.4077	245.4077	569.6061	569.6061	681.9281	681.9281	907.1114	2183.5257	2381.9084	3498.8083
C#CC#N	C(#C)C#N	
InChI=1S/C3HN/c1-2-3-4/h1H	InChI=1S/C3HN/c1-2-3-4/h1H
