14
gdb 3582	4.78673	3.0539	2.53804	3.5373	55.88	-0.2162	0.063	0.2792	575.8008	0.114735	-324.477059	-324.471696	-324.470752	-324.5058	22.169	
O	 0.1096389009	 1.4308952216	-0.0558490902	-0.427337
C	-0.0587983641	 0.0620994672	 0.0348732155	 0.140169
C	-0.4342869684	-0.7571213642	 1.2470476644	-0.137028
C	-1.6203704165	-0.1850129432	 2.0639712128	-0.046034
N	-2.0350316393	 1.1287548652	 1.4845445555	-0.366802
C	-2.4818090111	-0.1582517947	 0.8700003169	-0.046021
C	-1.3447211303	-0.7287354293	-0.0148962476	-0.137038
H	-0.6159631436	 1.8031589459	 0.4760469226	 0.298431
H	 0.7203163001	-0.4386322908	-0.5384734742	 0.104431
H	 0.171941348	-1.5739552537	 1.6197877836	 0.08961
H	-1.8489924427	-0.4245875374	 3.093882464	 0.101133
H	-2.806242321	 1.4822128443	 2.0488600452	 0.235746
H	-3.5360924454	-0.3721733095	 0.7555279388	 0.101132
H	-1.5244267065	-1.5210592414	-0.7315509872	 0.089607
254.1645	292.1289	455.2313	548.3596	671.2888	675.315	694.8093	704.9941	736.081	830.1514	831.8045	881.8056	905.2534	943.9987	990.5839	991.2883	1006.2685	1041.9836	1078.3005	1126.3461	1131.2936	1198.7419	1247.1137	1258.1386	1314.9185	1318.6064	1346.2434	1414.9614	1501.297	3122.8451	3175.6185	3185.1381	3197.1425	3210.2818	3480.3212	3599.8678
OC1C2C3NC3C12	O[C@H]1[C@H]2[C@H]3N[C@H]3[C@@H]12	
InChI=1S/C5H7NO/c7-5-1-2(5)4-3(1)6-4/h1-7H	InChI=1S/C5H7NO/c7-5-1-2(5)4-3(1)6-4/h1-7H/t1-,2+,3-,4+,5+
