17
gdb 1924	4.53301	2.84755	2.4591	1.4706	63.75	-0.2332	0.0911	0.3243	641.9353	0.149911	-309.705795	-309.699753	-309.698809	-309.73513	24.537	
C	-0.0844357237	 1.5119758643	 0.0109369555	-0.48944
C	 0.0833475938	 0.0191765999	 0.0352639051	 0.452434
C	 1.0276677825	-0.7906763065	-0.8977675784	-0.261413
C	 0.6795096742	-1.9147655761	 0.1264152225	-0.069863
C	 0.6958405149	-0.7935706208	 1.2110342136	-0.261411
C	-0.8297418229	-2.0316979579	-0.1112259689	-0.071964
O	-1.1903533183	-0.6343653272	-0.1660530384	-0.312078
H	 0.8772193427	 2.0101850542	 0.1625135488	 0.115157
H	-0.4969353066	 1.8351139745	-0.949922307	 0.127047
H	-0.7715583386	 1.8327893837	 0.8000930409	 0.127038
H	 0.7131045091	-0.9165781273	-1.9371904577	 0.094749
H	 2.069996454	-0.4721664348	-0.838925469	 0.096628
H	 1.2543397579	-2.8357503615	 0.2156001809	 0.069428
H	 1.7057368911	-0.4753475903	 1.4759942744	 0.096628
H	 0.0773158064	-0.9221156719	 2.1032813642	 0.094749
H	-1.0873078495	-2.526333285	-1.0557491754	 0.096156
H	-1.3647094669	-2.5287532371	 0.7072327386	 0.096155
205.1446	265.5856	309.5297	374.6402	481.7902	519.449	617.8972	664.6882	808.9294	855.9776	859.7682	894.974	910.5977	941.4526	958.1102	990.3175	1007.4186	1032.337	1077.0929	1098.9416	1128.6794	1186.9216	1189.7175	1194.1223	1219.1297	1255.641	1294.697	1334.904	1363.2051	1418.9966	1473.0096	1481.0696	1493.5525	1507.3661	1533.6381	3017.1788	3040.1031	3055.2716	3060.3779	3066.1927	3109.7419	3117.6797	3125.0378	3127.8801	3134.6439
CC12CC(C1)CO2	C[C@@]12C[C@@H](C1)CO2	
InChI=1S/C6H10O/c1-6-2-5(3-6)4-7-6/h5H,2-4H2,1H3	InChI=1S/C6H10O/c1-6-2-5(3-6)4-7-6/h5H,2-4H2,1H3/t5-,6+
