10
gdb 48	12.06545	11.77731	6.71997	1.7978	34.56	-0.2424	0.0859	0.3283	236.9759	0.086675	-193.034094	-193.029968	-193.029024	-193.060777	12.915	
C	-0.0348978893	 1.5525945452	-0.085076909	-0.257917
C	 1.4934918305	 1.4545970026	 0.1011467722	-0.051336
O	 1.427258843	 0.0234899002	 0.2725488563	-0.269739
C	-0.0063475762	 0.0223649401	 0.1094463006	-0.051336
H	-0.5657920959	 2.1130172058	 0.6859152725	 0.112505
H	-0.3662835212	 1.8939337967	-1.0669232738	 0.112503
H	 2.1003172372	 1.7352571988	-0.768983487	 0.101329
H	 1.9002309019	 1.9550661136	 0.9889674805	 0.101331
H	-0.5198784877	-0.3559517926	 1.0023594848	 0.101331
H	-0.3197006222	-0.5756742104	-0.7555927472	 0.101329
71.8547	762.1	819.159	834.4657	931.5536	944.3228	1042.715	1052.0337	1148.8412	1163.8985	1193.2845	1233.1963	1260.8056	1313.3439	1383.7818	1491.4273	1515.4721	1545.1092	3006.1298	3017.0184	3048.2828	3049.1412	3082.1773	3135.8312
C1COC1	C1COC1	
InChI=1S/C3H6O/c1-2-4-3-1/h1-3H2	InChI=1S/C3H6O/c1-2-4-3-1/h1-3H2
