14
gdb 1632	3.41283	2.58718	1.56802	1.6866	54.83	-0.2536	-0.0463	0.2073	760.1412	0.111802	-361.763293	-361.755537	-361.754593	-361.795495	27.118	
C	 0.5504889767	 1.6871457227	-0.3741181969	-0.403179
C	-0.0104498931	 0.38049413	 0.1835158167	-0.184005
C	 0.1570203989	-0.7775114365	-0.7910669414	 0.148428
O	-0.1359695402	-1.9265954394	-0.5593303695	-0.258434
C	 0.5646146239	 0.0676477656	 1.590047503	 0.395488
N	 0.1292717705	-1.1030465676	 2.1290605465	-0.520351
O	 1.2935958955	 0.852831217	 2.1600338755	-0.349721
H	 1.6335379609	 1.6204059601	-0.5093639667	 0.137538
H	 0.0917409348	 1.9229494117	-1.3394796604	 0.111591
H	 0.3606901378	 2.5095675158	 0.3159058261	 0.146591
H	-1.0980376251	 0.4678507752	 0.3265760203	 0.141126
H	 0.5726131637	-0.4935519098	-1.7820112551	 0.101675
H	-0.246731719	-1.8084483208	 1.5097820291	 0.273964
H	 0.5708899646	-1.3962054242	 2.9867216928	 0.259288
64.2682	102.8785	169.4284	251.2245	286.8956	326.923	422.891	503.1628	528.0241	614.8555	624.5272	728.4879	736.5293	914.8904	943.7625	1057.0598	1099.9391	1144.2625	1159.7021	1239.7507	1299.0839	1338.5537	1411.8209	1427.8849	1488.3589	1493.8933	1623.7188	1804.7575	1808.0366	2902.6962	3010.2744	3050.0519	3118.0599	3150.3847	3542.3705	3686.0622
CC(C=O)C(N)=O	C[C@@H](C=O)C(=O)N	
InChI=1S/C4H7NO2/c1-3(2-6)4(5)7/h2-3H,1H3,(H2,5,7)	InChI=1S/C4H7NO2/c1-3(2-6)4(5)7/h2-3H,1H3,(H2,5,7)/t3-/m0/s1
