12
gdb 4227	5.02314	1.46124	1.43864	2.0437	39.74	-0.2805	0.0665	0.347	827.7717	0.085733	-492.022084	-492.014746	-492.013802	-492.054335	24.942	
O	-0.0807714037	 1.4612029245	 0.0105767785	-0.420096
C	 0.0427988069	 0.0493851302	 0.0021284494	-0.082263
C	-1.3744191693	-0.5148383717	 0.01232714	-0.309308
C	-1.4023003764	-2.0261617893	 0.0043449598	 0.274169
F	-0.776011808	-2.5425315777	 1.0768818926	-0.085245
F	-2.660114741	-2.4904672029	 0.0138384888	-0.076424
F	-0.7966897655	-2.5307322493	-1.0855336022	-0.085227
H	 0.8031123251	 1.8399930681	 0.0056268865	 0.291405
H	 0.573572756	-0.3072713197	-0.8925216654	 0.106464
H	 0.5900163307	-0.3164808128	 0.8830358423	 0.106468
H	-1.9065867665	-0.1706566134	 0.9033211243	 0.140019
H	-1.9231061183	-0.161041116	-0.8647769745	 0.140038
72.2898	95.171	167.7854	257.2505	350.0529	360.2545	391.1119	538.8468	554.1554	666.7056	805.3258	855.6462	1020.0354	1028.1771	1075.503	1181.4872	1189.5858	1260.9454	1261.858	1269.6753	1324.5311	1379.4227	1466.042	1481.2533	1533.4002	2990.5209	3023.7539	3073.3954	3124.6036	3833.5466
OCCC(F)(F)F	OCCC(F)(F)F	
InChI=1S/C3H5F3O/c4-3(5,6)1-2-7/h7H,1-2H2	InChI=1S/C3H5F3O/c4-3(5,6)1-2-7/h7H,1-2H2
