13
gdb 2141	4.10218	3.23145	1.84941	2.6121	55.4	-0.2455	-0.0159	0.2296	654.6995	0.103044	-340.684371	-340.677957	-340.677013	-340.714815	22.495	
C	-0.0077235217	 1.4695882784	 0.0046678248	-0.353391
N	 0.0124951695	 0.0228069272	-0.0158829437	-0.095332
C	 0.0600902205	-0.8136650248	-1.1271158044	 0.070046
N	 0.0698701241	-2.0702775454	-0.8985898042	-0.252249
C	 0.0242239728	-2.1990437261	 0.5609519288	-0.290847
C	-0.0136225539	-0.776755475	 1.1271490952	 0.392701
O	-0.0560786775	-0.3813283505	 2.2674099773	-0.368615
H	 0.894459751	 1.887555586	-0.453527207	 0.139763
H	-0.8867925947	 1.8633623055	-0.51562671	 0.139745
H	-0.0482943597	 1.7713516644	 1.0532472128	 0.173129
H	 0.0862929206	-0.3740215081	-2.1197554207	 0.1377
H	-0.859198506	-2.7642471997	 0.8769942295	 0.153677
H	 0.900381585	-2.7401898519	 0.9341549015	 0.153675
107.3291	168.9583	190.9956	283.5187	463.4822	477.1814	599.3646	663.2246	718.5082	879.4892	927.8399	984.4331	993.6059	1041.9091	1100.0441	1156.0313	1181.8986	1253.8152	1304.3471	1319.2904	1396.0056	1434.521	1458.6188	1496.6104	1509.1376	1680.0031	1837.0818	3034.6086	3055.6201	3090.8839	3095.1984	3141.3219	3186.3426
CN1C=NCC1=O	CN1C=NCC1=O	
InChI=1S/C4H6N2O/c1-6-3-5-2-4(6)7/h3H,2H2,1H3	InChI=1S/C4H6N2O/c1-6-3-5-2-4(6)7/h3H,2H2,1H3
