19
gdb 2692	13.55506	0.81297	0.7855	0.8418	74.26	-0.2576	0.059	0.3166	1453.9336	0.169602	-273.763107	-273.754104	-273.75316	-273.796843	31.737	
C	-0.0359781993	 1.5856200322	 0.0400117879	-0.379607
C	-0.0005561963	 0.0554177733	 0.0055934567	-0.169502
C	 0.7055503208	-0.5039046711	-1.2341353176	-0.157555
C	 0.7424737057	-2.0340353373	-1.2711318559	-0.172515
C	 1.456001801	-2.5805101971	-2.5243944531	-0.355564
C	 1.4979552317	-4.0370018583	-2.5717393359	 0.293662
C	 1.5190823292	-5.2388980922	-2.5866751589	-0.439606
H	 0.9760471892	 2.0056845385	 0.0373090219	 0.113655
H	-0.5625263229	 1.9896199761	-0.8318767639	 0.113654
H	-0.545939756	 1.9532460143	 0.9359139114	 0.112066
H	 0.5009962068	-0.3203702189	 0.9071950852	 0.096381
H	-1.0255702336	-0.3363171523	 0.0449122571	 0.096381
H	 0.2041950834	-0.1286063175	-2.137591336	 0.092703
H	 1.7320425245	-0.1126069769	-1.2746072876	 0.092703
H	 1.2498181399	-2.4182909546	-0.3782277396	 0.10792
H	-0.2779282575	-2.4342911237	-1.2410639486	 0.10792
H	 0.9538215478	-2.2012299981	-3.4244624259	 0.127798
H	 2.4799644552	-2.1852710691	-2.5625347849	 0.127801
H	 1.5437543704	-6.2998733674	-2.6106060024	 0.191704
60.4987	98.146	103.5711	141.8788	206.6415	249.5304	349.4451	351.1472	387.0905	538.2742	613.8566	632.7485	731.591	755.6168	844.6914	892.3634	963.6017	971.9689	1007.5683	1043.5134	1069.0512	1129.1099	1135.7843	1231.1658	1260.0804	1295.0208	1325.6927	1333.2952	1334.1401	1380.9195	1400.7814	1414.0906	1472.6939	1483.7945	1489.0436	1500.3428	1502.3276	1513.2038	2238.2356	3000.5531	3012.8026	3015.7911	3025.4363	3029.377	3034.705	3038.9899	3050.8963	3079.1288	3095.8862	3101.9231	3508.6081
CCCCCC#C	CCCCCC#C	
InChI=1S/C7H12/c1-3-5-7-6-4-2/h1H,4-7H2,2H3	InChI=1S/C7H12/c1-3-5-7-6-4-2/h1H,4-7H2,2H3
