14
gdb 2638	7.7899	1.14662	1.06053	3.3895	55.85	-0.2518	-0.0289	0.2229	1036.641	0.112092	-361.745554	-361.737602	-361.736658	-361.779303	25.916	
O	-0.1088233174	 0.2821992882	 0.45778041	-0.234233
C	-0.0303547505	 1.3008190603	-0.1792426075	 0.155793
C	 1.1729729479	 2.2147746348	-0.2029436579	-0.269194
C	 1.7328469492	 2.3760268211	-1.6319506359	-0.170931
N	 2.8047673275	 3.3541721831	-1.7129479976	-0.265694
C	 2.5507681782	 4.6886204183	-1.7642426314	 0.154215
O	 1.4387588901	 5.1740212694	-1.7839599895	-0.324101
H	-0.8761940209	 1.6409088324	-0.8215634162	 0.081493
H	 0.8529907948	 3.2075846457	 0.1378891984	 0.149533
H	 1.9308392371	 1.8256389883	 0.4821563894	 0.116979
H	 2.1121725065	 1.4202183429	-2.0039975904	 0.123559
H	 0.9339013604	 2.707667108	-2.3017797483	 0.146261
H	 3.7594782852	 3.0464882201	-1.6233585519	 0.254054
H	 3.479759762	 5.2909540874	-1.7970530913	 0.082265
40.8994	70.7562	78.7593	178.1488	277.3823	288.1952	407.0498	493.6589	536.5435	732.3137	805.0463	869.981	971.3661	1002.4893	1032.4352	1088.6063	1132.6125	1199.9388	1242.7623	1281.3874	1339.3714	1406.003	1426.5892	1429.9673	1461.8935	1478.963	1526.5884	1800.223	1835.3217	2861.4909	2944.3338	3038.0937	3060.1503	3100.5441	3119.9171	3643.0075
O=CCCNC=O	O=CCCNC=O	
InChI=1S/C4H7NO2/c6-3-1-2-5-4-7/h3-4H,1-2H2,(H,5,7)	InChI=1S/C4H7NO2/c6-3-1-2-5-4-7/h3-4H,1-2H2,(H,5,7)
