17
gdb 4545	3.90061	1.66281	1.18198	1.9887	73.19	-0.1626	0.0595	0.2221	1004.3594	0.143461	-360.06441	-360.055772	-360.054828	-360.09715	31.766	
C	-0.0345901741	 1.4447775661	-0.0007630953	-0.34293
N	-0.0139720493	 0.000705612	 0.0004881497	-0.004813
C	 0.008023434	-0.8027077406	-1.1302949445	-0.193774
C	 0.0021634086	-2.1180062059	-0.7224073368	 0.253358
N	-0.0752617181	-3.2665132242	-1.5383065447	-0.60638
C	 0.0059918993	-2.1176888587	 0.7024839326	-0.304007
C	 0.0020183512	-0.7988982091	 1.113840062	 0.282005
N	-0.0552540533	-0.2160077047	 2.3997102591	-0.609225
H	 0.957569544	 1.8731852817	-0.194481444	 0.121101
H	-0.7220503592	 1.8070879206	-0.7709064337	 0.130967
H	-0.380497856	 1.7865786683	 0.976246721	 0.154481
H	 0.0195757556	-0.3666247251	-2.116205841	 0.093569
H	 0.2188151603	-3.0774529313	-2.4886734528	 0.232687
H	 0.4903337624	-4.0249700432	-1.1765442827	 0.23499
H	 0.0062343699	-2.9826469484	 1.3492797836	 0.072361
H	-0.4507448876	-0.8695355303	 3.064534273	 0.245096
H	 0.8610158823	 0.0545567429	 2.7466831045	 0.240511
100.9774	139.5136	183.2304	188.3039	216.4616	288.9355	308.6089	342.4166	502.9263	589.923	599.9794	636.0027	650.0555	663.5727	726.6793	793.6641	819.9588	837.3344	1008.896	1069.8882	1106.5795	1151.9295	1153.8659	1194.4428	1215.1633	1272.4065	1376.7385	1433.5526	1452.9326	1491.8616	1505.0382	1529.2449	1549.076	1628.061	1653.7809	1660.2504	3013.6059	3081.2983	3139.7304	3235.5375	3256.3774	3483.563	3521.482	3589.5062	3608.6014
CN1C=C(N)C=C1N	Cn1cc(N)cc1N	
InChI=1S/C5H9N3/c1-8-3-4(6)2-5(8)7/h2-3H,6-7H2,1H3	InChI=1S/C5H9N3/c1-8-3-4(6)2-5(8)7/h2-3H,6-7H2,1H3
