17
gdb 1785	5.18756	1.71886	1.58496	0.8857	60.51	-0.2518	0.062	0.3137	841.9375	0.146556	-346.835129	-346.826814	-346.82587	-346.867377	30.114	
C	-0.0725986553	 1.4962584886	-0.0136640558	-0.402708
C	 0.0293825364	-0.0112138113	 0.0391045413	-0.033371
C	 1.3678814681	-0.7037105534	-0.1577849331	-0.356367
C	 0.6998233586	-0.7071992644	 1.1921233317	 0.373145
O	 1.2452828407	 0.1121565222	 2.2032896544	-0.472767
C	 0.0951962461	-1.9739753671	 1.7600088303	-0.113836
O	 1.0216420212	-2.6870232028	 2.5650160439	-0.422747
H	 0.7726682473	 1.960607044	 0.499442526	 0.125988
H	-0.0887636755	 1.852400214	-1.0492042274	 0.113713
H	-0.9877212729	 1.8464960891	 0.4758379044	 0.117951
H	-0.8297927677	-0.5370118941	-0.3724247248	 0.084259
H	 1.4118844208	-1.6293813676	-0.7219350551	 0.114985
H	 2.2351239988	-0.0605385038	-0.2753755913	 0.10789
H	 2.1749717454	-0.1216201412	 2.289096199	 0.287545
H	-0.8077406289	-1.7173843967	 2.3364786124	 0.09186
H	-0.2044544124	-2.6473651094	 0.950933652	 0.105786
H	 1.2123464993	-2.1141692559	 3.315756342	 0.278674
88.3249	146.0719	163.6251	191.4779	231.6492	297.3258	365.9931	407.6006	454.102	471.9039	592.5164	727.4319	821.0365	882.6551	914.2404	932.7355	979.6419	1016.5063	1046.0685	1071.2176	1100.8738	1136.7317	1186.3012	1190.3187	1248.5281	1307.1722	1345.9741	1385.0917	1401.7621	1417.3603	1431.2266	1484.896	1492.9296	1496.3843	1504.916	2980.7253	3035.2023	3081.8902	3092.7583	3117.1525	3123.0645	3133.9635	3210.8354	3807.2224	3815.3132
CC1CC1(O)CO	C[C@H]1C[C@]1(O)CO	
InChI=1S/C5H10O2/c1-4-2-5(4,7)3-6/h4,6-7H,2-3H2,1H3	InChI=1S/C5H10O2/c1-4-2-5(4,7)3-6/h4,6-7H,2-3H2,1H3/t4-,5-/m0/s1
