19
gdb 3287	4.58166	2.38671	1.97469	0.1661	70.4	-0.2607	0.0829	0.3436	746.3416	0.173004	-273.761356	-273.754552	-273.753608	-273.792022	26.557	
C	 0.08189015	 1.599675774	-0.0486261799	-0.411101
C	 0.0570155967	 0.0804334335	 0.0311154236	 0.05638
C	 0.9595057516	-0.7563095358	-0.9285555112	-0.253734
C	 1.364221112	-1.6844511459	 0.255612963	-0.000415
C	 2.7448779609	-1.3748455563	 0.875227517	-0.217409
C	 2.1041947665	-0.2173521994	 1.700271334	-0.231071
C	 0.6824110328	-0.6663017332	 1.2405226202	-0.02652
H	 1.0998049679	 1.9957625123	 0.0323521159	 0.113208
H	-0.3273054577	 1.9468755978	-1.0042367221	 0.112281
H	-0.5157050367	 2.051072905	 0.751675708	 0.111387
H	-0.9793336651	-0.2623142624	-0.0730122584	 0.068433
H	 0.4407544139	-1.2376631533	-1.7611955206	 0.094847
H	 1.8059911817	-0.1944638347	-1.3389456142	 0.090639
H	 1.0590939232	-2.7284505812	 0.1692561781	 0.057221
H	 3.1096296923	-2.184010683	 1.5144395866	 0.095679
H	 3.5430229709	-1.1069702161	 0.1753633296	 0.090206
H	 2.270279594	-0.2820049482	 2.7780419492	 0.098798
H	 2.392847854	 0.7879663185	 1.3820217306	 0.09718
H	 0.0063889512	-0.9669232915	 2.0434342907	 0.05399
71.1883	204.9701	238.4568	321.7751	354.9581	477.432	585.4542	727.3105	748.1285	758.1337	831.8525	866.7611	894.9023	902.6834	946.0823	960.2364	986.5037	1021.3427	1052.9935	1110.934	1122.1919	1140.0876	1157.3081	1201.5335	1216.1796	1232.81	1254.0087	1263.4024	1281.2678	1296.57	1306.5636	1331.1247	1371.2257	1410.5805	1475.38	1483.1425	1490.8084	1496.8181	1503.5426	3023.5374	3026.5464	3040.0911	3042.1905	3061.0005	3076.3588	3086.8828	3087.8334	3088.6538	3094.2991	3102.3383	3113.6964
CC1CC2CCC12	C[C@H]1C[C@H]2CC[C@@H]12	
InChI=1S/C7H12/c1-5-4-6-2-3-7(5)6/h5-7H,2-4H2,1H3	InChI=1S/C7H12/c1-5-4-6-2-3-7(5)6/h5-7H,2-4H2,1H3/t5-,6+,7-/m0/s1
