11
gdb 1036	8.34961	2.15952	1.71576	2.9341	53.77	-0.2518	-0.0549	0.1969	659.4371	0.080507	-339.486095	-339.4806	-339.479656	-339.51549	19.54	
O	-0.0727301742	-0.0431394552	 0.0003032178	-0.270939
C	-0.0345431197	 1.156357251	 0.0091600383	 0.179751
N	 1.1495125392	 1.8972402034	 0.0024144315	-0.047511
C	 1.2700117282	 3.2850840174	 0.0118502771	-0.109184
C	 2.6064180295	 3.5326587344	-0.0003608717	-0.080147
N	 3.3287899596	 2.3455514087	-0.0171202563	-0.263616
C	 2.4403434077	 1.3945447991	-0.0149882985	 0.042256
H	-0.9264890316	 1.8075470154	 0.0235036417	 0.108693
H	 0.4041515915	 3.9257666013	 0.0259100985	 0.146899
H	 3.1061404227	 4.4889037576	 0.0017054667	 0.126787
H	 2.6203763073	 0.331480487	-0.0250447552	 0.167011
145.0961	228.3326	248.538	527.6383	619.31	668.434	736.7417	798.9446	856.1265	881.8626	905.3964	1029.9563	1035.7998	1095.4432	1125.7616	1250.1848	1275.0905	1322.3477	1416.5998	1441.2634	1516.7919	1573.3645	1835.0432	2984.0631	3257.0592	3277.8592	3285.4381
O=CN1C=CN=C1	O=Cn1ccnc1	
InChI=1S/C4H4N2O/c7-4-6-2-1-5-3-6/h1-4H	InChI=1S/C4H4N2O/c7-4-6-2-1-5-3-6/h1-4H
