12
gdb 508	16.14416	1.34674	1.28155	2.7868	55.38	-0.2463	-0.0269	0.2194	887.4234	0.093413	-269.218553	-269.211092	-269.210148	-269.252047	23.348	
C	 0.0323338006	 1.505011697	 0.0833337924	-0.49619
C	 0.0242093588	 0.0499682795	 0.0407764799	 0.072153
C	 0.0366849522	-1.1533681906	 0.0075684574	 0.042444
C	-0.0130079511	-2.6069346601	-0.0531392756	-0.410015
C	-1.4192995149	-3.1268703764	-0.3594994576	 0.171443
O	-1.6418502413	-4.0758001036	-1.0605530249	-0.231356
H	 0.9868482791	 1.9048180492	-0.2759367984	 0.15263
H	-0.7600976904	 1.9253739096	-0.5454050797	 0.151743
H	-0.1200900631	 1.8753876167	 1.1029054076	 0.150274
H	 0.6732062063	-3.0210439724	-0.799243376	 0.152482
H	 0.2755065504	-3.0391111877	 0.9179388944	 0.152546
H	-2.2336933067	-2.5559232312	 0.1374763105	 0.091847
13.5476	54.3865	120.832	204.3074	294.7957	377.3131	458.3941	484.4422	706.7636	807.0858	1032.9021	1039.9347	1053.8708	1057.2131	1167.3367	1212.2736	1293.0286	1413.9452	1415.9319	1442.4221	1477.2799	1478.4264	1840.5895	2375.1455	2898.3797	2996.6685	3028.7966	3076.4792	3090.3993	3090.8768
CC#CCC=O	CC#CCC=O	
InChI=1S/C5H6O/c1-2-3-4-5-6/h5H,4H2,1H3	InChI=1S/C5H6O/c1-2-3-4-5-6/h5H,4H2,1H3
