15
gdb 2480	5.53978	2.4637	2.28634	1.9142	61.49	-0.2247	0.0101	0.2348	648.5974	0.125896	-308.473229	-308.467332	-308.466388	-308.502667	23.054	
C	-0.0434706816	 1.4571896026	 0.0473584879	-0.518255
C	-0.0118081263	-0.0284181345	-0.0158627532	 0.365329
C	-0.0576826815	-0.9013202918	-1.0270474531	-0.200484
C	 0.0284388498	-2.2458336204	-0.2832957873	 0.029686
C	-1.0095158586	-2.0410089228	 0.8611650636	-0.214577
C	 0.0967115031	-0.9945876727	 1.1902904368	-0.027714
O	 1.0777035396	-1.9703407654	 0.7086712695	-0.284537
H	 0.8647937121	 1.8544525072	 0.5183100226	 0.134284
H	-0.1296028735	 1.8991919259	-0.9491385114	 0.129127
H	-0.8882559821	 1.8149308674	 0.6500723487	 0.12855
H	-0.1342767146	-0.742537846	-2.0928272369	 0.10318
H	 0.1564432056	-3.1760810729	-0.8349595059	 0.078986
H	-2.0117214387	-1.6899312173	 0.6057814191	 0.094735
H	-1.0286979931	-2.870667779	 1.5721201389	 0.105696
H	 0.2939494098	-0.6017677405	 2.1879133307	 0.075993
170.8972	194.4276	294.9295	490.5694	550.3571	587.8276	648.8327	778.992	790.8391	834.2204	847.4381	886.4118	912.5423	934.0218	1000.161	1021.1699	1057.0261	1064.1031	1094.5422	1158.0131	1197.0478	1222.9261	1235.146	1260.7466	1297.4006	1302.8779	1413.7951	1478.7084	1484.4889	1486.0989	1689.9777	3015.5656	3060.5407	3060.8019	3108.3175	3122.8019	3132.4529	3136.1743	3238.8624
CC1=CC2CC1O2	CC1=C[C@@H]2C[C@H]1O2	
InChI=1S/C6H8O/c1-4-2-5-3-6(4)7-5/h2,5-6H,3H2,1H3	InChI=1S/C6H8O/c1-4-2-5-3-6(4)7-5/h2,5-6H,3H2,1H3/t5-,6-/m1/s1
