14
gdb 2502	3.57511	2.2248	1.39634	2.8699	63.38	-0.2405	-0.0368	0.2037	845.2005	0.112463	-320.768458	-320.760153	-320.759209	-320.80098	27.772	
C	-0.0066917806	 1.4361463314	 0.0490069211	-0.31644
N	-0.0544074034	-0.0135947725	 0.0705748578	-0.331284
C	-1.2603402544	-0.6648764111	 0.0151132868	 0.313548
N	-2.3725318416	-0.0482260719	 0.0895855937	-0.292718
C	-3.626113817	-0.768578947	 0.1110625969	-0.340785
C	-1.1235807542	-2.114678607	-0.1028335472	 0.229353
N	-1.034792366	-3.2624788559	-0.2111241399	-0.332429
H	 1.0331958668	 1.7519493	 0.1505978996	 0.1269
H	-0.4260135916	 1.8526891865	-0.875858013	 0.13445
H	-0.5871296172	 1.8360219156	 0.8838042502	 0.154475
H	 0.7488083956	-0.5196994864	-0.2633681264	 0.261377
H	-4.2644398038	-0.4021298192	-0.7010638867	 0.132558
H	-3.5311961422	-1.8590821757	 0.0137795669	 0.128258
H	-4.1531054403	-0.5509927465	 1.0477414001	 0.132736
124.2746	132.1943	141.9934	152.5599	203.6711	244.3946	326.8314	364.2617	396.8257	537.6408	632.7716	719.1988	776.6367	1047.3934	1078.5835	1132.923	1153.0273	1165.152	1210.0452	1294.1371	1446.0542	1457.9862	1474.1128	1483.3495	1503.1064	1505.1994	1537.679	1721.4497	2343.8355	2999.0115	3023.2877	3067.7256	3074.7598	3098.5869	3141.6435	3653.2583
CNC(=NC)C#N	CNC(=NC)C#N	
InChI=1S/C4H7N3/c1-6-4(3-5)7-2/h1-2H3,(H,6,7)	InChI=1S/C4H7N3/c1-6-4(3-5)7-2/h1-2H3,(H,6,7)
