12
gdb 4693	6.52365	1.36524	1.13155	6.9196	67.47	-0.2201	-0.0304	0.1897	959.5464	0.086534	-373.748836	-373.741955	-373.741011	-373.779884	25.114	
N	 0.1327192995	 1.3911400645	 0.1488951321	-0.611061
C	-0.004397379	 0.0116836473	 0.0283468709	 0.322629
C	-1.1037533767	-0.8262224172	-0.0320870179	-0.15194
N	-0.7126056124	-2.1339557061	-0.0511663833	-0.279638
C	 0.6042368936	-2.1143731586	-0.0107130213	 0.244659
N	 1.0815368282	-0.8190368004	 0.0434524677	-0.330813
C	 1.4766726012	-3.2281399815	-0.0342125014	 0.232211
N	 2.2284649606	-4.1099409096	-0.0484445232	-0.343127
H	 0.7410948401	 1.8076753526	-0.5469818161	 0.258046
H	-0.7632369299	 1.859920042	 0.1332621583	 0.263841
H	-2.1451767857	-0.544479596	-0.0637746817	 0.113738
H	 2.0439111704	-0.541394247	 0.1504230758	 0.281455
142.9916	155.9304	192.2986	302.725	374.6245	510.943	525.0961	560.4166	588.7315	664.8928	707.775	716.7942	760.7198	818.2666	1004.3049	1051.2597	1110.516	1195.3894	1225.2453	1308.7975	1418.1562	1467.6345	1499.6849	1620.6884	1660.5867	2339.2429	3251.4894	3526.3337	3626.6262	3656.0372
NC1=CN=C(N1)C#N	Nc1cnc([nH]1)C#N	
InChI=1S/C4H4N4/c5-1-4-7-2-3(6)8-4/h2H,6H2,(H,7,8)	InChI=1S/C4H4N4/c5-1-4-7-2-3(6)8-4/h2H,6H2,(H,7,8)
