15
gdb 1991	6.43404	1.58894	1.44417	3.4827	58.06	-0.2366	0.0389	0.2756	848.4204	0.125268	-341.836348	-341.828981	-341.828037	-341.868258	26.374	
N	 0.5238375133	 0.1434018083	-0.5160869773	-0.507712
C	-0.3425610625	 0.279959318	 0.5196944737	 0.380769
O	-0.2231993944	 1.094817848	 1.4136873727	-0.365583
C	-1.5422483704	-0.6735545573	 0.463193344	-0.249939
N	-1.326841715	-1.8097897419	-0.4243960025	-0.080393
C	-0.8645640003	-3.0480043404	 0.2017501233	-0.220843
C	-2.2614734868	-2.9229724564	-0.2961103763	-0.216852
H	 1.3111525193	 0.7659454555	-0.5812677633	 0.257977
H	 0.3382388516	-0.539832404	-1.2320157659	 0.267447
H	-1.7790643857	-0.9593451337	 1.4993379238	 0.115129
H	-2.3945404076	-0.0950393826	 0.0861995867	 0.13477
H	-0.1292593933	-3.6165933113	-0.3596181556	 0.120968
H	-0.7140653474	-3.0438300596	 1.2795711505	 0.123519
H	-3.0500187451	-2.8382404442	 0.4490964573	 0.118191
H	-2.5613100757	-3.3975340784	-1.2258366211	 0.122552
64.0728	86.7144	187.6085	291.0454	353.9924	384.6173	460.9641	534.7319	570.6275	696.4325	780.6508	845.2372	870.1259	909.6798	1003.5106	1035.1683	1056.3143	1097.1804	1117.4309	1123.902	1173.3049	1190.3008	1265.2319	1321.7908	1346.6629	1369.202	1469.6438	1494.4545	1521.6627	1587.3146	1808.3882	2994.7919	3058.9397	3101.479	3105.729	3184.4933	3198.7926	3589.3612	3734.5807
NC(=O)CN1CC1	NC(=O)CN1CC1	
InChI=1S/C4H8N2O/c5-4(7)3-6-1-2-6/h1-3H2,(H2,5,7)	InChI=1S/C4H8N2O/c5-4(7)3-6-1-2-6/h1-3H2,(H2,5,7)
