18
gdb 1559	6.07641	1.25876	1.12732	3.9066	66.31	-0.2392	0.0332	0.2724	1077.4188	0.159028	-327.009009	-327.000262	-326.999318	-327.042747	29.774	
C	-0.0322782692	 1.562553521	 0.0651084529	-0.378463
C	 0.0010395602	 0.0334760225	 0.1296383778	-0.171735
C	-1.3895427437	-0.5817618402	-0.0845340207	-0.160606
N	-1.4152666011	-2.0333756192	-0.0390121172	-0.028563
C	-1.2423025569	-2.7028094662	 1.2385345222	-0.347464
C	-1.6216297604	-2.7750198514	-1.1647862172	 0.151736
O	-1.6539730637	-3.986789372	-1.2209081741	-0.344287
H	 0.9642301029	 1.9859466372	 0.2189565584	 0.121142
H	-0.395826665	 1.9122101467	-0.9075693391	 0.119046
H	-0.6927262039	 1.979008884	 0.8337927793	 0.118761
H	 0.682203999	-0.3642705898	-0.6321088967	 0.108035
H	 0.3993821683	-0.2848787497	 1.0999989943	 0.105764
H	-2.0864205649	-0.1884641965	 0.6697022031	 0.1054
H	-1.7766397064	-0.2712954781	-1.0618225288	 0.115061
H	-1.9707887856	-2.3291509558	 1.968253209	 0.121589
H	-1.3996946232	-3.7693594061	 1.077084068	 0.168826
H	-0.2362064737	-2.5486330166	 1.6444096496	 0.127524
H	-1.7651255327	-2.13023622	-2.0546855806	 0.068235
60.3123	85.2492	105.9566	153.77	232.4981	284.6908	317.2473	340.3235	383.644	418.7763	708.4322	749.8429	870.5261	882.6807	911.0674	1027.7784	1040.1765	1091.037	1118.0887	1136.0669	1162.0509	1260.9424	1280.1837	1320.7193	1335.1678	1405.6607	1415.1721	1433.9373	1439.0587	1442.3562	1482.7929	1492.9002	1496.9223	1500.1586	1510.4129	1522.3118	1794.8797	2931.4963	3001.6334	3022.4376	3031.5515	3034.9456	3055.0264	3072.3265	3076.2488	3100.1591	3110.451	3154.943
CCCN(C)C=O	CCCN(C)C=O	
InChI=1S/C5H11NO/c1-3-4-6(2)5-7/h5H,3-4H2,1-2H3	InChI=1S/C5H11NO/c1-3-4-6(2)5-7/h5H,3-4H2,1-2H3
