15
gdb 4498	3.77509	1.67725	1.17275	1.2954	64.97	-0.1677	0.0576	0.2253	980.375	0.118091	-399.828661	-399.820309	-399.819365	-399.860964	30.592	
C	-0.0543205066	 1.5100898333	 0.0639542987	-0.501067
C	-0.0157414085	 0.0237079117	-0.0522274564	 0.318903
C	-0.0635899573	-0.8014250103	-1.1516194525	-0.344603
C	 0.0181814863	-2.1503948767	-0.6858399993	 0.151786
O	-0.0510281601	-3.3389372965	-1.3875940791	-0.463985
C	 0.1070978001	-2.1026155873	 0.6813084261	 0.307876
O	 0.1910770972	-3.085284902	 1.612880607	-0.445532
N	 0.0806338245	-0.790682515	 1.0665754691	-0.355657
H	 0.8525130934	 1.9194239323	 0.5290259874	 0.121257
H	-0.1411856567	 1.9542532784	-0.9304945577	 0.134927
H	-0.9091131659	 1.862130499	 0.6565787445	 0.122608
H	-0.1511569134	-0.4792681687	-2.1783793774	 0.089569
H	 0.6710492941	-3.363581823	-2.0240462315	 0.294438
H	 0.1600341839	-3.9186585187	 1.1275353753	 0.308361
H	 0.123072869	-0.4819214766	 2.022083476	 0.261119
112.3809	177.5446	205.0322	246.8208	263.9853	273.8841	312.679	360.7282	383.8271	507.5438	589.4666	639.4031	659.3397	666.8007	765.9009	824.0946	993.0669	1013.4876	1061.4338	1138.7	1164.279	1190.1723	1258.0248	1287.7707	1389.3733	1421.1139	1425.7361	1477.6896	1499.7331	1556.68	1583.0837	1693.7401	3005.5367	3044.8888	3118.323	3242.1712	3682.0327	3795.4974	3804.186
CC1=CC(O)=C(O)N1	Cc1cc(O)c(O)[nH]1	
InChI=1S/C5H7NO2/c1-3-2-4(7)5(8)6-3/h2,6-8H,1H3	InChI=1S/C5H7NO2/c1-3-2-4(7)5(8)6-3/h2,6-8H,1H3
