12
gdb 706	8.58988	2.85701	2.76639	1.903	45.96	-0.2647	0.0726	0.3373	507.0283	0.096139	-306.31359	-306.308102	-306.307158	-306.34263	19.299	
C	 0.4054051911	 1.3639367445	 0.3170630993	-0.168431
O	 1.0452258762	 0.2833728926	-0.3693249688	-0.230403
C	-0.3119161997	 0.1148973216	 0.024423774	 0.051666
C	-0.5789931029	-0.8979550804	 1.0975620781	 0.051666
C	 0.3679231915	-1.9889984315	 1.3682297596	-0.168431
O	 0.2708487687	-0.8569081965	 2.2383251902	-0.230404
H	 0.7569742363	 1.532139552	 1.3317628798	 0.135791
H	 0.2143210972	 2.2515849613	-0.2835399258	 0.115699
H	-1.029154565	 0.1023292897	-0.7980695783	 0.095678
H	-1.6361316351	-1.0538389426	 1.3194687273	 0.095678
H	 0.0070127461	-2.929050657	 1.7819953008	 0.115699
H	 1.2819347756	-2.0370518736	 0.7819002538	 0.135791
108.7884	225.8611	253.6709	492.8809	619.2478	739.908	854.8245	871.2708	906.1346	970.0538	989.2654	1064.8374	1096.0757	1106.8673	1157.8615	1164.5091	1169.7482	1173.0707	1273.0158	1296.6882	1413.6566	1440.46	1509.3952	1522.0035	3089.8526	3094.3698	3097.3045	3107.9592	3194.9115	3195.464
C1OC1C1CO1	C1O[C@H]1[C@H]1CO1	
InChI=1S/C4H6O2/c1-3(5-1)4-2-6-4/h3-4H,1-2H2	InChI=1S/C4H6O2/c1-3(5-1)4-2-6-4/h3-4H,1-2H2/t3-,4-/m1/s1
