18
gdb 4540	3.87323	1.63812	1.17311	1.6297	76.74	-0.1777	0.0578	0.2355	1040.3809	0.154315	-344.021154	-344.012357	-344.011412	-344.054271	31.865	
C	-0.0926448597	 1.4484295774	 0.0207639734	-0.342924
N	-0.0300253692	 0.0040633137	 0.0090198163	-0.00824
C	-0.0122593586	-0.7954609324	-1.1152638998	-0.205199
C	 0.035139974	-2.1129815479	-0.7252509409	 0.288781
C	 0.053628032	-3.3091466794	-1.6283051267	-0.49744
C	 0.069951432	-2.1134093421	 0.7020583295	-0.332687
C	 0.0323899395	-0.8016510894	 1.1236633026	 0.278157
N	-0.0270866573	-0.2199613813	 2.4095563623	-0.608132
H	 0.8989861877	 1.9072919235	-0.0838305258	 0.123878
H	-0.72216969	 1.7965983406	-0.8022599123	 0.133342
H	-0.5291750579	 1.7721031084	 0.9676336861	 0.154991
H	-0.0325986578	-0.3551869592	-2.1002175021	 0.102699
H	 0.9525400679	-3.9200169665	-1.480342785	 0.118092
H	-0.8078002178	-3.9654605365	-1.4542888239	 0.118905
H	 0.0303777731	-3.008488566	-2.6802117449	 0.113752
H	 0.119959123	-2.9787854992	 1.3471389277	 0.075234
H	-0.3372285638	-0.9037674395	 3.0889601108	 0.245753
H	 0.8743734031	 0.1317931459	 2.7209496228	 0.241039
103.1792	109.3978	152.6639	186.5686	200.0643	260.2385	299.9592	325.1772	485.4535	581.3961	621.0595	644.0497	659.6748	689.3894	757.2484	814.4613	834.2263	990.2656	1014.3224	1061.2045	1073.3528	1140.4429	1152.2953	1177.799	1212.2484	1260.5044	1376.0068	1391.3392	1420.5656	1442.4014	1476.086	1482.4365	1495.1316	1510.6946	1521.4382	1554.4425	1621.9742	1655.0512	3017.4026	3018.7245	3063.7044	3090.9464	3098.8564	3138.4638	3230.5884	3248.5515	3483.1117	3592.0764
CN1C=C(C)C=C1N	Cn1cc(C)cc1N	
InChI=1S/C6H10N2/c1-5-3-6(7)8(2)4-5/h3-4H,7H2,1-2H3	InChI=1S/C6H10N2/c1-5-3-6(7)8(2)4-5/h3-4H,7H2,1-2H3
