13
gdb 3095	4.17644	2.00774	1.73458	4.7121	51.54	-0.2388	-0.018	0.2208	735.3824	0.099911	-381.565482	-381.558319	-381.557374	-381.596758	25.567	
O	 0.0443061019	 1.3587581547	-0.0344839407	-0.419121
C	-0.0280107153	-0.0265341173	-0.0152235979	 0.084402
C	-0.4156509908	-0.6896135424	 1.2643135189	 0.018741
O	-0.7571283239	 0.1761838807	 2.3173173436	-0.420771
C	-1.3971410018	-0.7358969292	 0.1002207591	-0.192068
C	-2.6498833077	 0.0568208733	 0.1131099352	 0.181375
O	-3.6818782927	-0.3317058369	-0.3799690892	-0.272479
H	-0.2061997556	 1.6591536121	 0.8509975856	 0.289924
H	 0.7016267701	-0.4869657164	-0.6735002047	 0.121015
H	 0.0350083678	-1.6325120885	 1.5651739003	 0.111508
H	 0.0199293292	 0.2790349839	 2.8782393985	 0.303694
H	-1.4959001324	-1.6939153259	-0.3986218304	 0.113552
H	-2.5859918488	 1.0502913619	 0.5980851816	 0.080227
90.3098	178.9253	182.4837	262.8181	294.488	439.5417	455.2171	503.4033	596.7242	658.122	743.4779	818.5878	930.8493	993.6405	1018.5401	1050.981	1115.002	1152.8686	1154.6195	1227.8508	1258.6933	1320.5192	1330.7806	1410.4237	1445.4471	1466.9594	1807.7167	2938.0078	3129.8435	3164.5093	3179.7281	3731.8234	3802.8229
OC1C(O)C1C=O	O[C@H]1[C@@H](O)[C@H]1C=O	
InChI=1S/C4H6O3/c5-1-2-3(6)4(2)7/h1-4,6-7H	InChI=1S/C4H6O3/c5-1-2-3(6)4(2)7/h1-4,6-7H/t2-,3+,4-
