16
gdb 371	6.4208	2.16929	1.73642	0.7089	62.36	-0.2575	0.0581	0.3157	736.4751	0.14095	-234.474088	-234.466434	-234.46549	-234.505226	27.469	
C	-0.0832845714	 1.5481788838	 0.062683198	-0.394048
C	 0.0093709836	 0.0212906459	-0.0005038162	-0.159889
C	 0.7626082106	-0.5157262506	-1.243135869	-0.137341
C	 2.2461137849	-0.0949523719	-1.2753030151	-0.384919
C	 0.6415980761	-1.971411322	-1.3180236851	 0.320171
C	 0.5497675393	-3.1697605579	-1.3573791744	-0.468759
H	 0.8995487793	 2.0178342556	 0.1654571703	 0.120549
H	-0.554918294	 1.9547984971	-0.8392927181	 0.114976
H	-0.6861899738	 1.8612769174	 0.920534055	 0.115961
H	 0.5020658833	-0.3648595584	 0.9001109953	 0.105287
H	-0.9994670508	-0.4052124461	-0.0042539584	 0.108115
H	 0.2734099135	-0.0933834228	-2.1332828523	 0.102153
H	 2.7454343424	-0.5082654317	-2.1552741197	 0.125793
H	 2.3426555038	 0.9934291957	-1.3083846855	 0.116344
H	 2.7690571664	-0.462327748	-0.3866419959	 0.124116
H	 0.4635124768	-4.2269075861	-1.403353619	 0.191492
84.7553	157.9261	199.5257	219.4973	278.5298	313.4576	398.1347	517.1334	538.0747	623.4487	630.8531	764.3482	809.7572	902.5693	971.15	990.5613	1040.8778	1115.0627	1132.6015	1184.888	1282.8469	1314.2627	1343.1654	1375.0674	1406.5281	1414.1089	1483.9923	1492.6817	1498.8279	1504.9795	1510.536	2233.1738	2995.5186	3032.9652	3035.8945	3044.0815	3070.948	3100.6653	3109.0226	3116.8813	3124.3647	3506.0752
CCC(C)C#C	CC[C@@H](C)C#C	
InChI=1S/C6H10/c1-4-6(3)5-2/h1,6H,5H2,2-3H3	InChI=1S/C6H10/c1-4-6(3)5-2/h1,6H,5H2,2-3H3/t6-/m0/s1
