13
gdb 2082	4.77048	2.66371	1.81645	1.9882	49.73	-0.2417	-0.0343	0.2074	658.5511	0.102319	-381.594735	-381.588656	-381.587712	-381.624962	21.9	
O	 0.0055058567	-0.0039279221	 0.2632287286	-0.285705
C	-0.0145296333	 1.1645996551	-0.0337725589	 0.343144
C	-1.3206322803	 1.9465923975	-0.1630430212	-0.18736
O	-1.216016903	 3.1010976235	-0.9787735118	-0.225748
C	-0.0601907619	 3.8412400225	-0.6950347247	 0.015919
O	 1.1075781554	 3.1330448709	-1.0097260056	-0.225743
C	 1.2656255556	 1.9822495949	-0.197363149	-0.187371
H	-2.0899788438	 1.298192158	-0.5873393742	 0.148989
H	-1.634803597	 2.2172945606	 0.8616737607	 0.123553
H	-0.080869765	 4.7229773417	-1.3369087229	 0.129714
H	-0.0501146702	 4.1418166008	 0.3710895445	 0.078068
H	 1.5992281537	 2.2620053741	 0.8187448841	 0.12355
H	 2.0410739331	 1.3551451325	-0.6420669896	 0.148987
86.4283	180.389	380.0956	417.6108	425.8996	464.1471	540.5462	674.9235	807.8343	825.2143	965.7053	977.779	1060.6545	1083.8625	1154.9524	1205.5923	1205.6641	1240.3616	1288.9337	1326.835	1348.5652	1371.7995	1435.0362	1460.8782	1464.1184	1509.0116	1835.2631	2914.8412	2947.748	2953.3963	3115.4191	3116.1387	3127.2839
O=C1COCOC1	O=C1COCOC1	
InChI=1S/C4H6O3/c5-4-1-6-3-7-2-4/h1-3H2	InChI=1S/C4H6O3/c5-4-1-6-3-7-2-4/h1-3H2
