15
gdb 3050	9.33958	1.21896	1.13668	2.6756	59.32	-0.251	0.0266	0.2776	1000.962	0.126098	-341.828533	-341.821205	-341.820261	-341.861001	25.336	
O	-0.1209390359	 0.2488767303	 0.6873015132	-0.319716
C	 0.0153618009	 1.2349472915	-0.0048112744	 0.156675
N	 1.1894381238	 1.6568736822	-0.5483329101	-0.275328
C	 2.4578799106	 0.9822576313	-0.3169678464	-0.180603
C	 3.5351855704	 1.947222941	 0.1151530529	 0.022656
C	 4.9559469468	 1.6719923412	-0.1983163396	-0.242126
N	 4.2466346078	 2.7668384871	-0.886669173	-0.320963
H	-0.8236195718	 1.9077462719	-0.2715370597	 0.076932
H	 1.1872813681	 2.5077338389	-1.0888441304	 0.251728
H	 2.2652019299	 0.2308567601	 0.4536841804	 0.156203
H	 2.7837655857	 0.4488548064	-1.2225497397	 0.101442
H	 3.3050652724	 2.4950892439	 1.0266232587	 0.105025
H	 5.734581641	 1.9888560222	 0.4887593772	 0.127283
H	 5.1883754159	 0.7701377654	-0.7594181112	 0.115597
H	 3.9943472244	 2.4587404367	-1.8243170779	 0.225196
37.7885	91.2765	179.3496	233.4074	305.3341	402.5368	466.121	539.8957	739.8709	825.2207	830.0229	924.6574	941.8737	997.0923	1029.4287	1034.5347	1071.1572	1129.9014	1160.6283	1205.9332	1209.6553	1261.9852	1280.5425	1309.5857	1351.8412	1430.187	1435.6951	1491.3966	1513.2975	1529.4957	1807.1539	2938.5974	2994.1659	3102.4476	3111.3174	3134.4528	3197.4445	3474.8413	3630.7092
O=CNCC1CN1	O=CNC[C@H]1CN1	
InChI=1S/C4H8N2O/c7-3-5-1-4-2-6-4/h3-4,6H,1-2H2,(H,5,7)	InChI=1S/C4H8N2O/c7-3-5-1-4-2-6-4/h3-4,6H,1-2H2,(H,5,7)/t4-/m0/s1
