18
gdb 4486	3.54441	1.66051	1.15389	0.9041	76.66	-0.1827	0.0561	0.2388	1056.6023	0.153985	-344.030871	-344.021793	-344.020849	-344.064632	32.488	
C	 0.0598486817	 1.5124957679	 0.0721404554	-0.502039
C	 0.0368156579	 0.0235539581	-0.0371230299	 0.317973
C	 0.023046603	-0.8015242813	-1.1404878126	-0.326965
C	 0.0026263275	-2.1580996722	-0.694109238	 0.266803
C	-0.017156967	-3.3924196737	-1.5431026376	-0.506847
C	 0.0046119059	-2.1176675818	 0.6857523273	 0.139462
N	-0.0096936824	-3.1101429984	 1.6976351186	-0.617832
N	 0.0253575176	-0.7923304816	 1.066234179	-0.302523
H	 0.9495384093	 1.8779615382	 0.6010244684	 0.122288
H	 0.0653199061	 1.9564604328	-0.9261578777	 0.133898
H	-0.81676419	 1.9050896001	 0.6034100598	 0.122278
H	 0.0272109179	-0.4656411113	-2.1678736715	 0.079518
H	 0.8619786878	-3.4570789631	-2.1957545649	 0.121002
H	-0.0304323957	-4.2941219553	-0.9220255144	 0.099224
H	-0.8990881268	-3.4300034667	-2.1940988041	 0.121001
H	 0.7972275488	-3.7227105975	 1.6387016784	 0.240761
H	-0.8351616877	-3.6976276298	 1.6402094559	 0.240762
H	 0.0307399963	-0.5006857244	 2.0288423979	 0.251235
69.8682	103.6359	115.4348	174.0478	234.9259	248.1492	272.4862	324.3702	478.027	496.5766	586.167	647.9857	654.6203	658.9231	773.4275	792.5016	821.4935	986.3081	1002.4579	1023.7159	1059.2909	1063.1131	1167.7902	1185.151	1205.8858	1237.7705	1323.0917	1411.6668	1416.6146	1434.4072	1479.7551	1483.0727	1486.9808	1495.0788	1506.9277	1551.2571	1638.1356	1665.9795	3012.2288	3017.244	3054.2734	3063.6071	3090.7586	3119.0358	3227.3647	3497.5888	3560.267	3672.093
CC1=CC(C)=C(N)N1	Cc1cc(C)c(N)[nH]1	
InChI=1S/C6H10N2/c1-4-3-5(2)8-6(4)7/h3,8H,7H2,1-2H3	InChI=1S/C6H10N2/c1-4-3-5(2)8-6(4)7/h3,8H,7H2,1-2H3
