13
gdb 851	7.16586	1.99277	1.56923	2.2284	56.13	-0.174	0.0553	0.2293	735.898	0.102905	-340.65658	-340.649529	-340.648585	-340.687437	25.73	
N	 0.1481165515	 1.3981147596	 0.085244015	-0.608854
C	 0.0104151636	-0.005426353	 0.0051385679	 0.301639
C	-1.0861169744	-0.8380975512	-0.1164071829	-0.358785
C	-0.593253592	-2.175382045	-0.0833033332	 0.334153
O	-1.3143394973	-3.3331327085	-0.1782078613	-0.451985
C	 0.773456722	-2.1299006707	 0.0467806245	-0.185029
N	 1.1225109714	-0.7904411567	 0.100046995	-0.257584
H	 0.3489501748	 1.8163291032	-0.8192168179	 0.242992
H	-0.7050379314	 1.8211239823	 0.4303164188	 0.244434
H	-2.1123013242	-0.5248932003	-0.2427163787	 0.074668
H	-2.2431294345	-3.1024535221	-0.2645090453	 0.293063
H	 1.5053395731	-2.9169327763	 0.0966664841	 0.113546
H	 2.0380052074	-0.4284984012	 0.3005225441	 0.25774
81.5759	184.928	215.584	310.0746	324.1894	447.6273	477.7192	599.015	617.2058	652.0162	676.6649	743.0034	748.6819	826.126	987.4735	1013.6111	1112.9342	1156.6357	1187.1477	1200.9493	1319.4207	1334.1081	1456.4973	1490.5239	1564.5149	1645.4786	1667.4532	3232.2822	3285.3312	3485.3273	3587.9544	3688.2246	3849.6613
NC1=CC(O)=CN1	Nc1cc(O)c[nH]1	
InChI=1S/C4H6N2O/c5-4-1-3(7)2-6-4/h1-2,6-7H,5H2	InChI=1S/C4H6N2O/c5-4-1-3(7)2-6-4/h1-2,6-7H,5H2
