19
gdb 2175	3.43052	2.75893	1.8779	1.3727	66.68	-0.242	0.0788	0.3208	765.9276	0.172358	-310.935212	-310.927583	-310.926639	-310.967122	28.162	
C	 0.1406333586	 1.6128329401	-0.1650683279	-0.396283
C	-0.0133427993	 0.0969437757	 0.0019798498	 0.013583
C	 0.6755939328	-0.6881380802	-1.1411886275	-0.25156
C	 2.0644376843	-1.058147561	-0.5542491372	-0.065694
O	 2.0888589823	-0.5741418344	 0.783806099	-0.262644
C	 0.7385931251	-0.4698727071	 1.2272882087	 0.14803
C	 0.706178503	 0.3281399789	 2.5191657454	-0.411748
H	 1.1969095722	 1.901029238	-0.1752307146	 0.126686
H	-0.305531645	 1.9409006082	-1.1094460535	 0.109221
H	-0.3514337496	 2.1641752093	 0.6419375659	 0.113305
H	-1.07779897	-0.1538845567	 0.0597801499	 0.066823
H	 0.1112955824	-1.5909621446	-1.3907825167	 0.100586
H	 0.7568345017	-0.0929138168	-2.0543961375	 0.101347
H	 2.2189939835	-2.1473620667	-0.5685196513	 0.088915
H	 2.8979962688	-0.5949359164	-1.0912243114	 0.103777
H	 0.3414643616	-1.4824893585	 1.4278167631	 0.054056
H	 1.1384504988	 1.3222279196	 2.3809040554	 0.125391
H	-0.3227290516	 0.4388196263	 2.8760360402	 0.112299
H	 1.2823941504	-0.1869830235	 3.2926611101	 0.123911
47.0241	151.6576	219.4088	237.8683	280.8886	332.9112	366.7552	518.1455	670.285	715.8363	772.9871	799.6158	872.9476	896.105	965.179	979.5409	1019.3629	1033.7723	1057.7779	1112.7491	1127.6689	1161.9144	1187.6858	1232.9045	1245.3596	1269.4516	1315.6382	1343.7598	1375.635	1384.6277	1396.4251	1412.1016	1418.3526	1482.1275	1492.8213	1496.5095	1503.6145	1511.7821	1528.9943	2922.216	2988.5508	3034.2465	3044.1075	3046.5072	3061.9322	3067.4782	3099.5353	3103.6522	3108.8743	3115.0096	3125.9932
CC1CCOC1C	C[C@H]1CCO[C@H]1C	
InChI=1S/C6H12O/c1-5-3-4-7-6(5)2/h5-6H,3-4H2,1-2H3	InChI=1S/C6H12O/c1-5-3-4-7-6(5)2/h5-6H,3-4H2,1-2H3/t5-,6-/m0/s1
