15
gdb 4195	4.61501	1.59658	1.30936	1.8769	64.65	-0.246	-0.002	0.244	909.2753	0.119407	-399.751695	-399.744835	-399.743891	-399.782764	26.262	
O	-0.087107358	 1.3126590604	-0.0663225469	-0.387794
N	 0.0200875611	-0.0858316595	-0.0525531936	-0.244722
C	-1.1215673598	-0.639124895	 0.0536921688	 0.43825
C	-2.4955856765	-0.0128018368	 0.1888540737	-0.317548
C	-3.3706829763	-1.1136694037	 0.8474187397	-0.251383
C	-2.620862856	-2.410807842	 0.5955290288	 0.054768
O	-2.2670733421	-2.6042853505	-0.7741296873	-0.257271
C	-1.2534274903	-2.1145790091	 0.1328918664	-0.054166
H	 0.8346490592	 1.5875882566	-0.1177229258	 0.308878
H	-2.4491680825	 0.9086797183	 0.7722849816	 0.134138
H	-2.8716906589	 0.2564715562	-0.8030014132	 0.140491
H	-3.4520579471	-0.9533112051	 1.9282892122	 0.112444
H	-4.3860705507	-1.1430513845	 0.4421779098	 0.117337
H	-2.8623879518	-3.3136571668	 1.1511009719	 0.0994
H	-0.3907555502	-2.7534860084	 0.2851247138	 0.107177
105.5915	197.1956	229.0274	354.5906	378.571	444.9463	466.3233	582.4597	683.4924	688.4354	807.2474	825.9297	843.3171	870.9692	921.406	979.0249	992.2389	1030.3827	1058.3304	1103.177	1176.7409	1221.3461	1233.5283	1256.2433	1285.7434	1318.1368	1335.4446	1408.9195	1423.0155	1468.5905	1487.3457	1756.9002	3048.7948	3065.3281	3094.5925	3118.7407	3146.4166	3187.8445	3817.218
ON=C1CCC2OC12	ON=C1CC[C@H]2O[C@@H]12	
InChI=1S/C5H7NO2/c7-6-3-1-2-4-5(3)8-4/h4-5,7H,1-2H2	InChI=1S/C5H7NO2/c7-6-3-1-2-4-5(3)8-4/h4-5,7H,1-2H2/t4-,5+/m1/s1
