13
gdb 4724	6.77206	1.35128	1.13441	1.3315	71.92	-0.2323	-0.035	0.1973	999.7129	0.094967	-361.46761	-361.460404	-361.459459	-361.499049	26.233	
C	 0.0133507793	 1.5040546487	 0.006989626	-0.498761
C	 1.6733*^-6	 0.0133769095	-0.0262146453	 0.24576
C	-0.078210901	-0.8319277405	-1.0873479499	-0.110858
O	-0.056644575	-2.1143654586	-0.6279941804	-0.165879
C	 0.0359071051	-1.9841840524	 0.7247487779	 0.216652
N	 0.0727384938	-0.747601428	 1.131007927	-0.346157
C	 0.0795842133	-3.162692291	 1.4985512314	 0.262557
C	 0.1166200722	-4.1699132639	 2.154583076	-0.368628
H	 0.9306757954	 1.87414991	 0.4760326155	 0.144173
H	-0.0509630084	 1.9205241896	-1.0013502077	 0.125667
H	-0.8278007938	 1.8872772656	 0.5935661695	 0.144159
H	-0.1495174189	-0.7053544633	-2.1541679617	 0.147513
H	 0.1496713549	-5.0559914656	 2.7397186319	 0.203803
127.2656	141.118	149.3332	283.6582	324.8278	453.8622	548.0924	562.4712	602.3834	647.2452	691.8507	713.1627	748.083	768.7501	966.2425	1008.6794	1026.6327	1067.8699	1143.2731	1212.0518	1291.3776	1337.8571	1418.6293	1475.8546	1490.516	1557.9174	1625.3623	2244.8606	3041.657	3099.8913	3124.6563	3289.6075	3500.4567
CC1=COC(=N1)C#C	Cc1coc(n1)C#C	
InChI=1S/C6H5NO/c1-3-6-7-5(2)4-8-6/h1,4H,2H3	InChI=1S/C6H5NO/c1-3-6-7-5(2)4-8-6/h1,4H,2H3
