16
gdb 2309	4.16364	2.07491	1.80323	0.9913	66.1	-0.227	0.0397	0.2667	770.054	0.135012	-288.570006	-288.562278	-288.561334	-288.601616	28.244	
C	 1.1060801161	 1.4376339156	 0.0478614756	-0.425505
C	 0.238815736	 0.1992097582	-0.0018231279	 0.038336
C	 0.7837447528	-1.1609156031	 0.2771463031	-0.253545
N	-0.1760870504	-0.5476772155	 1.1893288503	-0.094442
C	 0.2255311365	-0.1323914349	 2.5400924232	-0.282531
C	 1.6534302817	-0.108843833	 2.8740691831	 0.305292
C	 2.8215456562	-0.1295804598	 3.1618210657	-0.466076
H	 1.951327953	 1.3257249739	 0.7289603501	 0.140165
H	 1.4986489346	 1.6546159843	-0.9515094744	 0.121053
H	 0.5239669376	 2.310848113	 0.3650292068	 0.118245
H	-0.5699990305	 0.2683358878	-0.7295649934	 0.088559
H	 0.4263249881	-2.0331562748	-0.2649008579	 0.110075
H	 1.8226013542	-1.2143900065	 0.5964236895	 0.121498
H	-0.2102639923	 0.8559711885	 2.7304200086	 0.136715
H	-0.2677787363	-0.8202134519	 3.2388376885	 0.141744
H	 3.8514837829	-0.1353616418	 3.4212562791	 0.200416
82.367	151.7125	180.4998	219.4805	315.5068	330.0043	400.8899	470.922	583.3145	612.2956	660.5076	743.0468	775.3387	898.4197	923.4644	946.799	997.71	1044.0287	1080.3409	1123.4749	1150.563	1169.785	1193.9396	1282.7377	1328.3578	1364.9345	1404.66	1422.2623	1466.3967	1493.7289	1500.0526	1512.3668	2222.6203	3021.2049	3032.7172	3053.5003	3087.1974	3095.0395	3097.5776	3139.9476	3181.5017	3502.4032
CC1CN1CC#C	C[C@H]1CN1CC#C	
InChI=1S/C6H9N/c1-3-4-7-5-6(7)2/h1,6H,4-5H2,2H3	InChI=1S/C6H9N/c1-3-4-7-5-6(7)2/h1,6H,4-5H2,2H3/t6-,7?/m0/s1
