15
gdb 3291	4.68294	2.79532	2.28158	1.1168	56.46	-0.2455	0.0619	0.3075	632.793	0.125345	-345.610758	-345.604577	-345.603633	-345.640676	23.17	
C	 0.2587586557	 1.5100254124	-0.0216413935	-0.405175
C	 0.051533754	 0.0165671239	 0.0796150977	 0.136226
O	 0.8647062276	-0.7527024367	-0.8622498467	-0.317634
C	 1.3824007314	-1.589928916	 0.1842183365	 0.07258
C	 2.6772904755	-1.0459594631	 0.8025680071	-0.092382
O	 1.921661394	-0.2163147629	 1.7269563625	-0.290102
C	 0.670290123	-0.7557342798	 1.2648714183	 0.045677
H	 1.2832686065	 1.7744659201	 0.2491835646	 0.136181
H	 0.0596421879	 1.8473337114	-1.0432402011	 0.127305
H	-0.4276584904	 2.0348657807	 0.6514981697	 0.118175
H	-1.0069449087	-0.2469571727	-0.060275132	 0.076493
H	 1.2774285125	-2.6569558327	-0.0186680376	 0.088221
H	 3.2820498739	-1.7847347445	 1.343804654	 0.103963
H	 3.3080898023	-0.4623044717	 0.1243926391	 0.115398
H	 0.0292268448	-1.1035245384	 2.0767615014	 0.085075
125.9734	206.8167	240.455	360.0808	408.2681	550.8247	675.9673	800.6305	809.4961	868.5218	897.8858	947.5735	956.1258	1004.0479	1038.298	1062.9678	1086.2971	1106.955	1144.3655	1166.8276	1198.8023	1230.0775	1292.1409	1303.0874	1340.0746	1356.3647	1377.4003	1404.5169	1482.1352	1492.9305	1501.8867	2997.9339	3018.1577	3041.741	3084.2003	3091.6996	3104.5794	3109.3838	3134.7739
CC1OC2COC12	C[C@H]1O[C@H]2CO[C@@H]12	
InChI=1S/C5H8O2/c1-3-5-4(7-3)2-6-5/h3-5H,2H2,1H3	InChI=1S/C5H8O2/c1-3-5-4(7-3)2-6-5/h3-5H,2H2,1H3/t3-,4+,5+/m1/s1
