13
gdb 3117	6.09769	2.15125	1.85014	3.4012	59.48	-0.2387	0.0134	0.252	679.601	0.103622	-303.462312	-303.456371	-303.455427	-303.49196	22.294	
N	 0.0065789962	-1.180259745	-0.0821079694	-0.352879
C	 0.0011524677	-0.0223755266	-0.0424513367	 0.188877
C	-0.0025497096	 1.3968997826	 0.0252110392	 0.17062
C	 0.3017444155	 2.2886516793	-1.1714154381	-0.298094
C	 1.1515025586	 2.4256854359	 0.0401388679	-0.045655
N	 0.4579161367	 3.2684910281	 1.0246022964	-0.319813
C	-0.625679262	 2.2349398841	 1.1547218094	-0.222627
H	 0.7479814779	 1.7632197815	-2.0084857028	 0.141305
H	-0.392600273	 3.0835604624	-1.4282670586	 0.131925
H	 2.2217933853	 2.2606943879	 0.0535728004	 0.121599
H	 0.9855020766	 3.3323630806	 1.8882278022	 0.234205
H	-1.6348176261	 2.6213856902	 0.9813399282	 0.121799
H	-0.5954315138	 1.705256589	 2.1100443717	 0.128739
166.3382	175.5838	294.5642	444.8561	499.2409	560.85	583.7021	745.7839	802.1036	821.7489	891.9202	950.3256	978.4485	1000.9022	1020.6584	1048.3441	1094.2023	1115.0529	1151.7283	1214.6814	1270.2222	1308.5247	1364.879	1408.7126	1480.4272	1508.8842	2339.5251	3050.3124	3107.2835	3124.36	3197.1219	3225.904	3537.4562
N#CC12CC1NC2	N#C[C@]12C[C@H]1NC2	
InChI=1S/C5H6N2/c6-2-5-1-4(5)7-3-5/h4,7H,1,3H2	InChI=1S/C5H6N2/c6-2-5-1-4(5)7-3-5/h4,7H,1,3H2/t4-,5+/m1/s1
