13
gdb 3466	5.72448	2.62274	2.58496	1.3441	53.55	-0.2487	-0.0039	0.2448	571.3321	0.102997	-344.398797	-344.3936	-344.392656	-344.427423	21.179	
O	 0.1968149334	 1.3486399735	-0.1491074715	-0.440179
C	 0.0885304103	-0.0302362447	-0.0731178877	 0.198405
C	 0.049545888	-0.6463338829	 1.3829955595	-0.037142
O	-1.3399192254	-0.1636609073	 1.4508593645	-0.309343
C	-1.3788814484	-0.6077512752	 0.0474805058	-0.037139
C	-1.1000768451	-2.0988655039	 0.1577959565	-0.078729
C	-0.1220591355	-2.1252844958	 1.0722161573	-0.078727
H	-0.4146942155	 1.6977024507	 0.5150642719	 0.288294
H	 0.7627555255	-0.4754915286	-0.8071111371	 0.09408
H	 0.6885338908	-0.3057391633	 2.1963567606	 0.085776
H	-2.2229214981	-0.2270921417	-0.5257217832	 0.085778
H	-1.5605947161	-2.8932162949	-0.4102806122	 0.114463
H	 0.452349266	-2.9475921557	 1.4717731257	 0.114463
266.9667	344.4115	485.0966	527.3077	582.4776	639.6762	709.1894	741.3007	823.8587	847.8988	902.4673	911.5515	919.7498	928.4053	949.1197	1009.6854	1125.9352	1128.6355	1148.9789	1188.0415	1200.2599	1240.5033	1297.9262	1303.1094	1317.9693	1432.3868	1604.6614	3109.4992	3138.0863	3142.0159	3234.8058	3260.4954	3747.795
OC1C2OC1C=C2	O[C@H]1[C@H]2O[C@@H]1C=C2	
InChI=1S/C5H6O2/c6-5-3-1-2-4(5)7-3/h1-6H	InChI=1S/C5H6O2/c6-5-3-1-2-4(5)7-3/h1-6H/t3-,4+,5-
