14
gdb 991	3.92426	3.15025	1.75905	1.2377	59.91	-0.1708	0.064	0.2348	684.8792	0.115587	-320.776316	-320.769025	-320.768081	-320.807481	26.767	
N	 0.0814901396	 1.4289679632	 0.1029900989	-0.619969
C	 0.0113972437	 0.0192890771	 0.0168637463	 0.202909
C	-1.0876759549	-0.8111210375	 0.0307779684	-0.163082
N	-0.6300472129	-2.1090881069	-0.0062619397	-0.246237
C	 0.7461691209	-2.1187294325	-0.0412538747	-0.162997
C	 1.1730539364	-0.8090236599	-0.0270803347	 0.202445
N	 2.4830121934	-0.2832289983	-0.1130107524	-0.619965
H	 0.7026122416	 1.8002388202	-0.6098381448	 0.242054
H	-0.8268225093	 1.8612651243	-0.0146365363	 0.233486
H	-2.1412332444	-0.5858949854	 0.0665310877	 0.100217
H	-1.2120261442	-2.9252473533	-0.0069317965	 0.255403
H	 1.3025139902	-3.0413309888	-0.0771371554	 0.100227
H	 3.1875979157	-1.002131682	-0.0012153653	 0.233482
H	 2.6337775742	 0.4205495897	 0.6037459785	 0.242027
61.4047	198.9638	230.9931	268.1102	324.7409	366.8393	458.2919	599.0435	607.7133	630.6762	699.8664	701.6261	750.5502	824.8059	857.3995	902.4985	1070.447	1082.3088	1134.1999	1157.2849	1248.259	1309.415	1366.4426	1460.0696	1476.8644	1589.5348	1623.5219	1648.2909	1671.5482	3259.1514	3262.4487	3493.9823	3496.4417	3594.4696	3595.8717	3712.7331
NC1=CNC=C1N	Nc1c[nH]cc1N	
InChI=1S/C4H7N3/c5-3-1-7-2-4(3)6/h1-2,7H,5-6H2	InChI=1S/C4H7N3/c5-3-1-7-2-4(3)6/h1-2,7H,5-6H2
