16
gdb 4463	3.56751	1.7078	1.16564	1.1426	68.88	-0.1579	0.0715	0.2295	994.1751	0.130363	-379.952009	-379.943238	-379.942293	-379.98481	31.852	
C	-0.1250822876	 1.494597081	 0.0695758726	-0.510633
C	-0.0296545374	 0.0123251231	-0.0506441895	 0.233135
C	 0.1752009758	-0.8118392045	-1.1332434878	 0.19517
N	 0.4120415141	-0.4300612685	-2.4728757666	-0.609089
C	 0.2011097852	-2.1705716791	-0.6707398778	-0.367226
C	 0.0159911458	-2.1172625225	 0.6887950851	 0.385863
O	-0.0604803576	-3.0713395424	 1.6535322444	-0.43881
N	-0.1106942946	-0.8202028998	 1.0717734565	-0.352333
H	-0.3050771668	 1.9465408105	-0.9112140268	 0.119655
H	-0.9595397195	 1.8005959099	 0.7144872492	 0.116855
H	 0.7844813943	 1.9618391506	 0.4736075729	 0.123539
H	 0.1888695908	 0.5448213106	-2.6339604636	 0.229803
H	-0.1318509005	-0.9874814128	-3.1221020064	 0.234941
H	 0.356595845	-3.0554924138	-1.2685816926	 0.077031
H	 0.0744199828	-3.9277821912	 1.2376418699	 0.305092
H	-0.2772074699	-0.5236979611	 2.0169120604	 0.257005
109.0501	156.3382	181.9972	209.0958	235.0994	258.5503	262.285	309.337	404.9794	504.1492	599.5212	633.8473	645.9646	660.5553	706.9685	788.0058	824.0885	985.8784	1043.9926	1057.4288	1067.6605	1177.0257	1195.368	1229.0575	1261.0924	1356.9428	1421.0512	1474.0744	1484.715	1499.0821	1550.1183	1597.8385	1644.8135	1675.0413	2994.3623	3036.4674	3088.0913	3242.965	3509.9833	3598.9187	3689.8536	3851.2314
CC1=C(N)C=C(O)N1	Cc1c(N)cc(O)[nH]1	
InChI=1S/C5H8N2O/c1-3-4(6)2-5(8)7-3/h2,7-8H,6H2,1H3	InChI=1S/C5H8N2O/c1-3-4(6)2-5(8)7-3/h2,7-8H,6H2,1H3
