13
gdb 119	20.50649	2.07478	1.95249	0.078	53.93	-0.2401	0.0631	0.3033	652.4812	0.112761	-195.196751	-195.18988	-195.188936	-195.228146	22.115	
C	-0.1730547446	 1.5338398698	 0.0452828964	-0.362774
C	 0.1514507875	 0.0316083815	-0.047053612	-0.309147
C	 0.8056530234	-0.487808597	 1.149923714	 0.079901
C	 1.344308369	-0.8930342247	 2.1478611946	 0.039405
C	 1.9962313415	-1.393329732	 3.3501942087	-0.494537
H	 0.7387156765	 2.1195328188	 0.1911879147	 0.126138
H	-0.6611210038	 1.8776615099	-0.8717981933	 0.11137
H	-0.8404037089	 1.7356095889	 0.8876511833	 0.126138
H	-0.7735900097	-0.5301239986	-0.2315759195	 0.124785
H	 0.7902374912	-0.149918474	-0.9212913038	 0.124786
H	 1.409729413	-2.1902271569	 3.8212040155	 0.144596
H	 2.9880956528	-1.8022316612	 3.1268463073	 0.144593
H	 2.1276988721	-0.5985745445	 4.0931380642	 0.144745
16.0017	130.2097	174.1543	263.3123	303.7596	387.932	507.849	707.4879	785.2905	961.0911	1051.6512	1052.0088	1080.7793	1106.6628	1170.188	1286.3191	1352.2052	1407.5295	1415.8203	1477.1048	1479.6633	1479.9449	1494.3523	1505.9934	2373.4217	3015.6256	3023.7672	3041.4992	3042.1707	3082.9688	3083.0588	3114.8403	3121.5199	16.0059	130.2095	174.1539	263.3119	303.7592	387.931	507.8487	707.4878	785.2904	961.0912	1051.651	1052.0087	1080.7794	1106.663	1170.188	1286.3194	1352.2053	1407.5297	1415.8202	1477.1051	1479.6631	1479.9447	1494.3526	1505.9937	2373.4216	3015.6256	3023.7672	3041.4991	3042.1707	3082.9688	3083.0589	3114.8403	3121.5199
CCC#CC	CCC#CC	
InChI=1S/C5H8/c1-3-5-4-2/h3H2,1-2H3	InChI=1S/C5H8/c1-3-5-4-2/h3H2,1-2H3
