14
gdb 691	6.44379	3.58724	2.94944	1.4055	52.75	-0.25	0.0768	0.3269	499.0357	0.12054	-270.396464	-270.390923	-270.389979	-270.425102	21.241	
O	-0.0857957045	 1.44962732	-0.0741389472	-0.432449
C	-0.0250806651	 0.0436328104	 0.037814494	 0.123449
C	 0.2394823025	-0.5938987467	 1.4506856681	-0.271226
C	-1.1177550412	-1.2969714448	 1.3455064882	-0.038825
C	-2.2031926527	-0.2723891763	 1.19720376	-0.267154
C	-1.3865356661	-0.6356773517	-0.0126336293	-0.044782
H	 0.8089414498	 1.7957856694	 0.004145694	 0.281196
H	 0.6591756008	-0.3805827402	-0.7094970227	 0.066931
H	 1.0982681927	-1.26933609	 1.4523981317	 0.097154
H	 0.3400628006	 0.1192895117	 2.2757058676	 0.093829
H	-1.3209244059	-2.3177435861	 1.6437257895	 0.084211
H	-3.217206857	-0.658786936	 1.1913363825	 0.10805
H	-2.0978225163	 0.7098991959	 1.6489659194	 0.117997
H	-1.8406638277	-1.0509218456	-0.9038788358	 0.08162
159.3845	280.977	340.0768	421.2147	549.1334	662.3622	783.5211	802.6283	832.3067	918.7958	947.8411	969.3826	1004.0842	1029.0992	1056.833	1074.7169	1083.0146	1125.1627	1155.8828	1204.353	1225.1011	1246.4168	1275.6753	1333.0042	1367.5351	1422.5366	1474.7623	1494.5447	3003.4742	3043.6483	3105.0627	3120.9564	3181.599	3191.2086	3209.8204	3814.8542
OC1CC2CC12	O[C@H]1C[C@H]2C[C@@H]12	
InChI=1S/C5H8O/c6-5-2-3-1-4(3)5/h3-6H,1-2H2	InChI=1S/C5H8O/c6-5-2-3-1-4(3)5/h3-6H,1-2H2/t3-,4-,5+/m1/s1
