14
gdb 539	16.56594	1.24175	1.21031	3.2791	51.08	-0.2512	-0.0209	0.2303	920.2045	0.117582	-307.571937	-307.564452	-307.563508	-307.604035	24.408	
O	-0.0562089663	 1.4641308457	 0.0990652833	-0.419339
C	 0.0262465403	 0.0516862475	 0.0135584336	-0.067624
C	-1.3948621867	-0.4890163339	-0.0850768213	-0.178661
C	-1.4354119373	-2.0220081744	-0.1767255582	-0.276889
C	-2.8521340225	-2.549392724	-0.1476428813	 0.162833
O	-3.3328529693	-3.2888495125	-0.9662734474	-0.236116
H	 0.8370582733	 1.8186602233	 0.1301373339	 0.288357
H	 0.6058746511	-0.2648786628	-0.8686881338	 0.090734
H	 0.5231833753	-0.376698155	 0.9000976039	 0.086094
H	-1.9576767703	-0.147089966	 0.7919773961	 0.114334
H	-1.8785308183	-0.0453742773	-0.9625243055	 0.122778
H	-0.9450455255	-2.3926870744	-1.0817474637	 0.122926
H	-0.9123643412	-2.4504495745	 0.6919197171	 0.119046
H	-3.4523934626	-2.1904082617	 0.7221886233	 0.071525
60.65	90.8957	122.8809	183.0953	255.139	348.4555	403.8289	535.3693	756.8576	815.9163	923.5359	980.8732	1040.1349	1065.3202	1100.4336	1155.2967	1211.698	1227.9548	1288.3039	1292.2967	1318.0741	1365.2576	1430.7293	1462.9522	1464.9256	1498.9419	1528.8477	1838.668	2850.2484	2958.5946	2986.7717	3003.7804	3037.5208	3077.5265	3098.6677	3831.8726
OCCCC=O	OCCCC=O	
InChI=1S/C4H8O2/c5-3-1-2-4-6/h3,6H,1-2,4H2	InChI=1S/C4H8O2/c5-3-1-2-4-6/h3,6H,1-2,4H2
