13
gdb 1158	3.3874	2.29011	1.87065	1.0521	61.3	-0.2672	0.0117	0.2789	737.3929	0.097446	-307.238995	-307.230949	-307.230004	-307.270448	29.569	
C	 0.0029102573	 1.5375349964	 0.0472792191	-0.38958
C	-0.0023845463	-0.0007701844	-0.0054182752	-0.019386
O	 0.6969099857	-0.4252652697	 1.167840065	-0.418745
C	-1.3850004103	-0.5148717421	 0.004463915	 0.347705
C	-2.5076270792	-0.941331307	 0.0394081045	-0.487135
C	 0.687291466	-0.4801152548	-1.2180974226	 0.347702
C	 1.2710679055	-0.8779634044	-2.1898481685	-0.487144
H	 1.0369068806	 1.8882733106	 0.0549378702	 0.136946
H	-0.5157440716	 1.9492220762	-0.8199581177	 0.135729
H	-0.4986982538	 1.8624945584	 0.9610703993	 0.136947
H	 0.7111106637	-1.3893219858	 1.1642636937	 0.289291
H	-3.5000801747	-1.3190436309	 0.0660629148	 0.203834
H	 1.7834013171	-1.2304491724	-3.0510144977	 0.203836
129.8614	171.0934	183.122	229.1047	269.313	317.4728	382.4228	467.9757	514.9171	562.4548	600.2082	641.1726	642.8585	666.9422	667.5552	693.3989	931.3532	939.3435	1049.896	1156.2332	1200.9262	1359.7732	1397.3926	1478.8484	1485.223	2233.699	2236.2505	3060.1957	3146.7047	3152.2759	3500.179	3500.7552	3804.7854
CC(O)(C#C)C#C	CC(O)(C#C)C#C	
InChI=1S/C6H6O/c1-4-6(3,7)5-2/h1-2,7H,3H3	InChI=1S/C6H6O/c1-4-6(3,7)5-2/h1-2,7H,3H3
