16
gdb 817	5.88512	1.90585	1.51808	0.9192	63.6	-0.2369	0.0136	0.2505	805.7743	0.137803	-325.758431	-325.751655	-325.750711	-325.789148	25.597	
O	-0.152877709	 1.3269284641	 0.2066800016	-0.39879
N	 0.0104523736	-0.0732677654	 0.1518219129	-0.22919
C	-1.1016254782	-0.6527812741	-0.0598459244	 0.41355
C	-2.4702037752	-0.0184510792	-0.204154649	-0.285064
C	-3.4069454581	-1.204606535	-0.515822259	-0.213658
C	-2.7038652116	-2.4208321951	 0.1205348435	-0.205679
C	-1.2098280182	-2.1601804825	-0.1550872298	-0.280465
H	 0.7460684383	 1.6269181198	 0.3765834727	 0.303763
H	-2.7342265639	 0.4730431956	 0.7407479311	 0.126838
H	-2.4726214701	 0.7670949235	-0.9649589781	 0.12607
H	-4.4231206543	-1.0541963105	-0.142664579	 0.099625
H	-3.4780820563	-1.3473921115	-1.6005714772	 0.103413
H	-2.8845963509	-2.4315192083	 1.2020673844	 0.10497
H	-3.0515224538	-3.3765266987	-0.2799271396	 0.098955
H	-0.9568543645	-2.4820429002	-1.1745811396	 0.116837
H	-0.5255377578	-2.6720866024	 0.5246518495	 0.118826
82.9597	221.6822	231.6815	304.8671	384.842	482.7299	499.9814	575.2398	644.6264	766.31	844.2234	865.8563	903.0649	918.5653	955.1839	983.1456	1021.8771	1031.0518	1156.4812	1171.3732	1214.7555	1228.3402	1250.4758	1301.2216	1318.3758	1338.4642	1345.4005	1401.5007	1464.086	1473.1335	1493.6817	1507.8311	1755.9075	3017.8848	3035.5114	3037.483	3042.3726	3088.281	3095.5562	3101.7106	3108.3933	3822.2488
ON=C1CCCC1	ON=C1CCCC1	
InChI=1S/C5H9NO/c7-6-5-3-1-2-4-5/h7H,1-4H2	InChI=1S/C5H9NO/c7-6-5-3-1-2-4-5/h7H,1-4H2
