16
gdb 1741	4.49659	2.01322	1.86985	3.474	61.37	-0.2461	0.0299	0.276	756.9702	0.136133	-325.792606	-325.785067	-325.784123	-325.824229	27.494	
C	 0.1103102757	 1.5166428025	-0.287498837	-0.446771
C	 0.0299492284	 0.0297007753	-0.0024302444	 0.369148
C	 1.2637008871	-0.8301191349	-0.1192539648	-0.322421
C	 0.6809857453	-0.5212754475	 1.2392834072	-0.262627
N	-1.2019807047	-0.6007260316	-0.4125419017	-0.32818
C	-2.3888926386	-0.4053595223	 0.2270784408	 0.148753
O	-2.5394951119	 0.2349070539	 1.2447980901	-0.321442
H	 1.0693995457	 1.9242155095	 0.0452772214	 0.114572
H	 0.0098974225	 1.7185254938	-1.3599408667	 0.108881
H	-0.6894660925	 2.0415718904	 0.2420985	 0.150423
H	 1.14539928	-1.8391299287	-0.49978659	 0.111126
H	 2.1874550682	-0.3442349464	-0.4134076472	 0.117342
H	 1.2043403083	 0.177749099	 1.8815477674	 0.1196
H	 0.1644198978	-1.3157159456	 1.7630568555	 0.126741
H	-1.2272193241	-1.0573641305	-1.3118205382	 0.244475
H	-3.2216835871	-0.922320567	-0.2935342824	 0.070381
59.5366	167.4831	218.6309	241.4667	311.4881	350.1024	415.646	439.7652	532.1102	669.9909	775.0208	820.5937	880.5187	918.7886	945.2609	995.1735	1032.6906	1044.9129	1073.1312	1081.3395	1127.9391	1186.5579	1191.0293	1307.0607	1342.5279	1412.1168	1432.1125	1460.2264	1480.7919	1497.866	1506.3664	1509.9996	1808.4676	2918.0292	3032.8913	3100.7431	3121.2838	3132.0101	3148.4034	3216.0397	3238.952	3610.4756
CC1(CC1)NC=O	CC1(CC1)NC=O	
InChI=1S/C5H9NO/c1-5(2-3-5)6-4-7/h4H,2-3H2,1H3,(H,6,7)	InChI=1S/C5H9NO/c1-5(2-3-5)6-4-7/h4H,2-3H2,1H3,(H,6,7)
