10
gdb 713	8.11323	4.36927	4.15208	3.1711	41.15	-0.256	0.0396	0.2955	376.0072	0.072361	-305.057353	-305.053089	-305.052145	-305.084646	16.443	
O	 0.0105537952	 1.3786529114	-0.2298630314	-0.205992
C	 1.2753363183	 0.786648444	 0.0522467711	-0.011813
C	 0.0535397787	-0.0150577999	 0.0624698927	-0.011807
C	 0.5417380335	-0.7756742567	-1.2412697292	-0.011816
O	 0.770242878	 0.1949571843	-2.2588147373	-0.205992
C	 1.7635077175	 0.0260704625	-1.2515271764	-0.011803
H	 1.8798636249	 1.197189799	 0.8515123699	 0.114806
H	-0.5542975368	-0.4000351419	 0.8718828091	 0.114805
H	 0.3448583924	-1.8009089032	-1.5292864854	 0.114807
H	 2.7789653883	-0.2035971095	-1.5497234532	 0.114804
412.5428	427.4698	664.5016	735.9805	785.1417	813.0141	830.5539	852.7118	889.9581	903.7933	979.7133	1000.2315	1010.8384	1035.7832	1192.5135	1195.9966	1243.2514	1257.2477	1347.5393	1391.0614	3186.4141	3194.8555	3201.1502	3210.5075
O1C2C1C1OC21	O1[C@H]2[C@@H]1[C@H]1O[C@@H]21	
InChI=1S/C4H4O2/c5-1-2(5)4-3(1)6-4/h1-4H	InChI=1S/C4H4O2/c5-1-2(5)4-3(1)6-4/h1-4H/t1-,2+,3-,4+
