13
gdb 2063	5.05677	2.64969	1.8156	3.3389	56.89	-0.2363	-0.0578	0.1785	661.686	0.102711	-344.47209	-344.466173	-344.465228	-344.501882	21.838	
O	-0.0086033569	-0.0295569792	 0.1343849007	-0.318994
C	-0.0054440528	 1.1717012382	-0.0352872733	 0.354442
C	-1.3046020271	 1.9773370014	-0.0822822296	-0.187523
O	-1.1909989046	 3.1682877084	-0.8379522228	-0.24033
C	-0.1565942337	 4.0173467706	-0.3954718458	-0.120001
C	 1.1558486634	 3.3080216125	-0.2305184592	-0.059351
C	 1.2280534753	 1.9762837502	-0.1215172082	-0.153997
H	-2.086586939	 1.3719524897	-0.5448241242	 0.140625
H	-1.6103372732	 2.1895420694	 0.9587862663	 0.111605
H	-0.0672894554	 4.8104890453	-1.1459863198	 0.13089
H	-0.4260732615	 4.5128669186	 0.5580961424	 0.110129
H	 2.0496147094	 3.9269700889	-0.1978619772	 0.11797
H	 2.1685845459	 1.4431337659	-0.0279193394	 0.114535
110.6476	250.147	313.2922	426.5981	478.7114	497.984	583.1418	738.2622	752.6666	862.274	912.9453	989.2056	998.5191	1028.2029	1062.45	1124.5889	1184.868	1228.2344	1273.6416	1296.8937	1353.2705	1398.7208	1406.2514	1465.4542	1478.2074	1681.9998	1790.6885	2918.3334	2945.8124	3064.6007	3116.9969	3157.8167	3193.7029
O=C1COCC=C1	O=C1COCC=C1	
InChI=1S/C5H6O2/c6-5-2-1-3-7-4-5/h1-2H,3-4H2	InChI=1S/C5H6O2/c6-5-2-1-3-7-4-5/h1-2H,3-4H2
