16
gdb 2489	4.94846	2.93586	2.5287	1.9165	63.35	-0.2318	0.0822	0.314	613.1706	0.137994	-288.576502	-288.570677	-288.569733	-288.605607	23.462	
C	-0.028467886	 1.5701123511	 0.0443189836	-0.510948
C	 0.0306506344	 0.0667620957	 0.0586616311	 0.300645
C	-1.2561408813	-0.8024407007	 0.1846230036	-0.277116
C	-0.3448102718	-1.8802764145	 0.7632837979	-0.02937
C	 0.692928878	-0.893564054	 1.1381803618	-0.096846
N	 0.9813064553	-1.8638285738	 0.0459748198	-0.146979
C	 0.849296177	-0.756074212	-0.9552979013	-0.177458
H	 0.9751579647	 2.0094324962	 0.0367205527	 0.1195
H	-0.5550447092	 1.9283988896	-0.8484354094	 0.121931
H	-0.5591004662	 1.9597364507	 0.9198160316	 0.119424
H	-1.9314542487	-0.4147418472	 0.9527864719	 0.102167
H	-1.8182957552	-1.0105025698	-0.7331180981	 0.091642
H	-0.6098658948	-2.8125620465	 1.2440592887	 0.096465
H	 1.3127636322	-0.7532308553	 2.014314851	 0.092697
H	 0.3760781754	-1.0316686104	-1.9063416115	 0.091451
H	 1.8450119862	-0.343518759	-1.1428262533	 0.102795
215.2697	270.2782	293.1061	444.0114	452.4971	607.8837	720.9165	750.0498	794.6662	827.2339	847.7213	920.1539	943.6342	968.6317	984.5025	997.1386	1017.2578	1047.0735	1112.3777	1147.5176	1149.8786	1171.6189	1202.9168	1224.9829	1251.8218	1272.3473	1324.8205	1359.8761	1415.9395	1487.727	1491.9623	1494.5605	1514.7653	3020.5442	3023.2936	3035.2629	3086.521	3089.4842	3093.2417	3096.6073	3193.3133	3209.1662
CC12CC3C1N3C2	C[C@]12C[C@@H]3[C@H]1N3C2	
InChI=1S/C6H9N/c1-6-2-4-5(6)7(4)3-6/h4-5H,2-3H2,1H3	InChI=1S/C6H9N/c1-6-2-4-5(6)7(4)3-6/h4-5H,2-3H2,1H3/t4-,5-,6-,7?/m1/s1
