13
gdb 3525	6.07059	2.58726	2.30006	3.1732	54.07	-0.2454	0.074	0.3194	597.8396	0.101456	-344.343476	-344.338074	-344.33713	-344.372419	21.129	
C	 0.0265322661	 1.5514836046	 0.0104799357	-0.308751
O	 1.190689944	 0.6828257674	-0.0062879008	-0.27752
C	-0.0695037985	 0.0997081142	 0.0031894159	 0.564453
C	-0.6041584641	-1.0201928298	 0.910787596	-0.064011
C	-1.8675268604	-1.0743923028	 0.0147638004	-0.220977
C	-0.6226098106	-1.0098458407	-0.9060578303	-0.064011
O	 0.0395072683	-1.9933798096	-0.0098373136	-0.31178
H	-0.1187978264	 2.1063634972	 0.9356659631	 0.124947
H	-0.1374898421	 2.1168381131	-0.9051910453	 0.124947
H	-0.4930675578	-1.1822806365	 1.981792316	 0.106708
H	-2.3628326732	-2.0447804946	 0.0142675478	 0.117707
H	-2.5590111845	-0.2280488573	 0.0266062493	 0.10158
H	-0.5333162407	-1.1597137052	-1.9808745943	 0.106708
205.0857	285.9664	358.3999	483.6254	581.1016	685.6698	754.5133	764.5691	867.905	868.1297	874.7841	940.1384	994.6216	1006.4456	1055.4886	1103.3157	1113.9296	1126.2254	1143.8812	1167.1583	1170.3771	1213.6553	1240.3073	1259.5816	1455.1224	1480.304	1560.2665	3067.4995	3089.6593	3136.5587	3140.8264	3161.1753	3177.894
C1OC11C2CC1O2	C1O[C@]21[C@H]1C[C@@H]2O1	
InChI=1S/C5H6O2/c1-3-5(2-6-5)4(1)7-3/h3-4H,1-2H2	InChI=1S/C5H6O2/c1-3-5(2-6-5)4(1)7-3/h3-4H,1-2H2/t3-,4+,5-
