15
gdb 4883	4.84549	1.48055	1.17896	4.158	66.26	-0.1744	0.0476	0.2221	993.2834	0.119672	-395.991719	-395.983833	-395.982889	-396.024107	28.666	
C	-0.1544337125	 1.4074495137	 0.1708615929	-0.334242
N	 0.4945008451	 0.1255705919	-0.1225284181	-0.387426
C	 0.7880673978	-0.6989655375	 0.9455695962	 0.38281
C	 0.5564896495	-1.9883717926	 1.2329974805	-0.217286
N	 1.1931597627	-2.2444500569	 2.4649661921	-0.333864
C	 1.8534711503	-1.1134622708	 2.8830434279	 0.467887
N	 2.5787740483	-0.9850977487	 3.9144824613	-0.60705
O	 1.5606426221	-0.1311213678	 1.9454539376	-0.233361
H	 0.4677924592	 1.967013195	 0.8713734093	 0.15654
H	-0.2296212307	 1.9824072419	-0.7548785246	 0.127515
H	-1.1584757174	 1.2992834961	 0.6077917965	 0.114213
H	 0.0269874922	-0.3878527571	-0.8572654132	 0.24163
H	-0.0380146001	-2.725698093	 0.7241540858	 0.131112
H	 1.4594697487	-3.1488922609	 2.8115547278	 0.269934
H	 2.9597734946	-0.0449284632	 3.9709348981	 0.22159
81.1808	135.3145	168.3775	178.3759	295.095	360.0666	412.7434	508.0359	598.6818	628.1616	678.0754	697.4713	707.4437	741.8744	777.1233	943.5638	965.0734	1035.7505	1062.7806	1100.3564	1145.86	1151.7484	1229.4969	1332.0203	1364.7543	1398.7617	1457.9318	1475.7242	1492.9899	1516.1294	1736.1781	1802.4543	2992.024	3098.9145	3143.4001	3294.7495	3545.7258	3586.7651	3688.647
CNC1=CNC(=N)O1	CNC1=CN[C@H]([NH])O1	
InChI=1S/C4H7N3O/c1-6-3-2-7-4(5)8-3/h2,6H,1H3,(H2,5,7)	InChI=1S/C4H8N3O/c1-6-3-2-7-4(5)8-3/h2,4-7H,1H3/t4-/m0/s1
