13
gdb 529	15.60527	1.49376	1.39916	4.5806	51.68	-0.2825	0.0109	0.2934	824.9588	0.106754	-286.492223	-286.485166	-286.484222	-286.52342	23.105	
C	-0.0720813738	 1.5026703885	 0.0109482902	-0.387756
C	-0.0246623146	-0.0139038158	 0.0023401012	-0.032092
O	-1.3595371965	-0.5010067941	 0.0123731295	-0.233162
C	-1.4167970326	-1.9026821496	 0.0054072411	-0.181608
C	-2.8189953167	-2.3316653498	 0.0164753231	 0.264605
N	-3.9124532448	-2.7016108183	 0.024975595	-0.292336
H	 0.9425884247	 1.911150439	 0.0035281272	 0.122017
H	-0.6040800058	 1.8749470459	-0.8686036405	 0.135882
H	-0.5872754546	 1.865407692	 0.9043800365	 0.135882
H	 0.5024019752	-0.3851451831	-0.8921256399	 0.096
H	 0.5192260959	-0.3946947051	 0.8826076	 0.096
H	-0.9285995512	-2.3272711862	-0.8879548171	 0.138282
H	-0.9117203952	-2.3367846233	 0.8847010237	 0.138284
76.6741	113.6419	133.4195	244.8625	303.7955	386.5799	420.8018	559.7779	821.8751	899.0801	953.4046	1034.7123	1044.675	1143.3719	1159.7508	1187.4931	1255.0146	1296.1065	1380.0652	1406.7552	1446.4306	1483.1589	1494.1246	1500.0039	1529.8565	2374.302	2959.378	2968.7452	2986.6753	2992.4818	3049.3698	3124.6324	3128.4408
CCOCC#N	CCOCC#N	
InChI=1S/C4H7NO/c1-2-6-4-3-5/h2,4H2,1H3	InChI=1S/C4H7NO/c1-2-6-4-3-5/h2,4H2,1H3
