16
gdb 278	6.31223	2.13733	1.91565	2.2037	53.61	-0.2581	0.0777	0.3359	711.2834	0.141325	-308.759135	-308.751467	-308.750523	-308.790567	26.669	
C	-0.185003523	 1.3352477269	-0.0458255458	-0.226124
O	-0.0645720301	-0.0673195544	-0.0233735414	-0.246383
C	 0.6972432964	-0.5865466025	-1.0984058129	-0.074919
C	 0.6235893236	-2.1110528567	-1.0059184809	 0.13402
C	 1.3242591858	-2.6569386732	 0.2416503308	-0.391508
O	-0.7341537597	-2.5252242325	-1.0657091876	-0.439826
H	 0.7961211453	 1.827810161	 0.0360598714	 0.108228
H	-0.670379405	 1.6872525478	-0.9692434823	 0.109058
H	-0.7983433681	 1.6261602705	 0.8105231538	 0.129022
H	 0.2718810829	-0.2533859276	-2.0583402065	 0.093041
H	 1.7405366079	-0.2345958517	-1.0441548713	 0.086373
H	 1.102756515	-2.524986242	-1.9014997506	 0.082565
H	 0.9038658745	-2.2048900162	 1.1447221246	 0.124817
H	 1.1898942781	-3.740046354	 0.2972367338	 0.121517
H	 2.3978587327	-2.4395095227	 0.2189144796	 0.105508
H	-1.2049498262	-1.9604187727	-0.4403333248	 0.28461
86.3083	124.1312	195.9367	232.2395	247.7753	334.5188	387.3038	413.7516	448.5	636.985	825.7372	929.1281	935.7782	986.3588	1061.1731	1119.8658	1150.8473	1166.4396	1189.8757	1221.1792	1266.185	1310.7952	1366.9929	1393.2241	1410.8181	1433.0258	1479.3598	1486.8337	1488.6263	1499.8392	1500.9001	1522.902	2963.9342	2978.7573	3004.4193	3023.398	3036.8935	3041.0041	3108.3123	3114.5028	3126.976	3782.9395
COCC(C)O	COC[C@@H](C)O	
InChI=1S/C4H10O2/c1-4(5)3-6-2/h4-5H,3H2,1-2H3	InChI=1S/C4H10O2/c1-4(5)3-6-2/h4-5H,3H2,1-2H3/t4-/m1/s1
