15
gdb 4354	3.79223	1.96544	1.30571	3.132	71.21	-0.2321	-0.0153	0.2168	905.9927	0.120918	-358.920358	-358.913004	-358.91206	-358.952538	27.235	
C	-0.0180131926	 1.4734480332	 0.0300484152	-0.457841
C	-0.0024158608	-0.0306474501	-0.0071629235	 0.353687
N	-0.0867356476	-0.6171353405	-1.2050157373	-0.303975
C	-0.0656911498	-1.9585424219	-1.1947313875	 0.01441
C	 0.0374375055	-2.7108349048	-0.0443301044	-0.20177
C	 0.1191966489	-1.9903469236	 1.1615560814	 0.389556
N	 0.2661887843	-2.6119032104	 2.3715998565	-0.56644
N	 0.0943945525	-0.6533411714	 1.1736281693	-0.346705
H	 0.9227028177	 1.8507328352	 0.4446973686	 0.135929
H	-0.1571607515	 1.874473613	-0.9738886641	 0.13429
H	-0.8189804566	 1.8294272083	 0.6852441635	 0.133677
H	-0.136267426	-2.4461127584	-2.1650105114	 0.108449
H	 0.0572359666	-3.7941788761	-0.0675035169	 0.090656
H	-0.0023270543	-3.5778151724	 2.4553755374	 0.256323
H	 0.1088862037	-2.0302710601	 3.1795945532	 0.259754
34.5354	185.031	211.51	302.3426	382.1367	435.6066	446.1219	496.5495	559.9426	589.4191	653.2225	772.8972	799.3984	837.4702	955.2181	995.8339	999.1005	1018.9589	1067.7122	1114.713	1130.5937	1272.6485	1307.7977	1378.9016	1398.7341	1447.5086	1466.7598	1479.9536	1504.1542	1605.969	1617.9745	1648.6475	3045.7818	3102.5389	3148.2136	3155.9166	3194.5788	3594.4159	3718.17
CC1=NC=CC(N)=N1	Cc1nccc(N)n1	
InChI=1S/C5H7N3/c1-4-7-3-2-5(6)8-4/h2-3H,1H3,(H2,6,7,8)	InChI=1S/C5H7N3/c1-4-7-3-2-5(6)8-4/h2-3H,1H3,(H2,6,7,8)
