16
gdb 2994	7.03182	1.52911	1.40342	2.4043	61.98	-0.2556	-0.0214	0.2342	897.8985	0.136271	-325.775843	-325.768181	-325.767237	-325.808102	26.782	
C	 0.0129395477	 1.5915092684	-0.0871204035	-0.378535
C	-0.0427956553	 0.0757609852	-0.2549297649	-0.287935
C	-1.3361216438	-0.547720037	 0.2360232282	 0.386782
O	-2.2746739476	 0.1125112761	 0.6354083714	-0.334839
C	-1.416577699	-2.0441524789	 0.2068602259	-0.100645
C	-1.9215734777	-2.702623278	 1.4561191642	-0.217175
N	-2.7549272843	-2.6499718567	 0.2642226809	-0.303582
H	 0.9525905924	 1.989595801	-0.4795343043	 0.112206
H	-0.8157141665	 2.0708868109	-0.6137631605	 0.136
H	-0.0674427197	 1.8711500306	 0.9666280882	 0.130732
H	 0.0746801784	-0.2124548955	-1.3097739144	 0.13007
H	 0.7885151791	-0.4207725377	 0.265034726	 0.125471
H	-0.6889308109	-2.5670828351	-0.407026191	 0.096635
H	-1.5401828548	-3.6847823963	 1.720211876	 0.125765
H	-2.1621238387	-2.0476549442	 2.2888984249	 0.131254
H	-3.4149514296	-1.8775491828	 0.3686428928	 0.247796
63.1183	92.4811	188.4713	189.2403	269.4029	311.5453	383.9763	573.1344	648.4863	794.4001	806.582	852.4797	885.3846	961.9065	996.9636	1007.224	1043.8048	1095.1611	1114.1805	1129.5689	1148.9932	1182.478	1275.2181	1290.3981	1320.6985	1359.6785	1408.9272	1414.9476	1450.0805	1492.12	1496.8158	1498.0595	1783.3777	3013.2122	3039.8455	3052.6489	3112.2756	3123.093	3129.5672	3153.6098	3206.0303	3456.3481
CCC(=O)C1CN1	CCC(=O)[C@H]1CN1	
InChI=1S/C5H9NO/c1-2-5(7)4-3-6-4/h4,6H,2-3H2,1H3	InChI=1S/C5H9NO/c1-2-5(7)4-3-6-4/h4,6H,2-3H2,1H3/t4-/m1/s1
