13
gdb 3206	3.54417	3.32827	2.05449	2.772	53.85	-0.2432	-0.0299	0.2133	638.0078	0.10061	-344.426408	-344.420094	-344.419149	-344.45654	23.012	
C	-0.0396968148	 1.5961511203	-0.0619239175	-0.411831
C	 0.0365430327	 0.0767812198	-0.0201871309	-0.135887
C	 0.71269431	-0.6689406674	-1.1865289824	 0.02521
O	 2.0658746716	-0.232736654	-1.2143653075	-0.232115
C	 1.7264007156	-1.315978837	-0.3162004082	-0.110777
C	 1.1041306938	-0.6189443216	 0.8925176383	 0.412741
O	 1.2653633233	-0.6765563024	 2.0737630635	-0.296529
H	 0.9136361249	 2.0160632975	-0.3917882981	 0.140254
H	-0.8253759484	 1.9359759098	-0.7442885359	 0.12093
H	-0.2632591255	 1.9908043763	 0.933653578	 0.136737
H	-0.9350609554	-0.3683669033	 0.2314500519	 0.106434
H	 0.2807668624	-1.0514083624	-2.1033709435	 0.119354
H	 2.2799605699	-2.2419088957	-0.4150727778	 0.125479
134.7921	205.6529	220.0888	249.1815	461.9695	549.5203	643.0564	707.6696	774.1686	846.5891	854.8059	862.0036	944.062	1011.3956	1043.8397	1053.5108	1083.407	1137.2191	1204.7971	1213.8255	1253.8827	1341.8066	1349.1455	1404.4764	1493.1727	1502.4332	1902.26	3036.4669	3042.2377	3108.359	3129.0106	3192.2881	3205.6097
CC1C2OC2C1=O	C[C@H]1[C@H]2O[C@H]2C1=O	
InChI=1S/C5H6O2/c1-2-3(6)5-4(2)7-5/h2,4-5H,1H3	InChI=1S/C5H6O2/c1-2-3(6)5-4(2)7-5/h2,4-5H,1H3/t2-,4-,5+/m1/s1
