14
gdb 257	7.4514	2.03598	1.73685	4.1216	51.48	-0.2748	0.0115	0.2863	712.2912	0.117552	-307.60208	-307.594822	-307.593878	-307.634011	24.383	
C	-0.0007638802	 1.6780080577	 0.068075515	-0.379788
C	-0.0547750709	 0.1579174662	-0.0296570751	 0.122098
C	 0.6139818731	-0.5489844899	 1.1434506376	-0.379792
O	-1.444284256	-0.2390595969	-0.0572448857	-0.184779
C	-1.9101991634	-0.887460323	-1.1366903534	 0.169211
O	-3.0440818383	-1.2499157517	-1.2394250741	-0.279608
H	 1.0382024455	 2.0199472654	 0.0951592186	 0.122304
H	-0.4953440081	 2.1410882095	-0.7900827725	 0.127461
H	-0.501792057	 2.0192073266	 0.9787752841	 0.135978
H	 0.4140471311	-0.1664161069	-0.9692936174	 0.087841
H	 0.1299775713	-0.2682191178	 2.0835187941	 0.135969
H	 0.5466078984	-1.6347172309	 1.0333474144	 0.127482
H	 1.6707672553	-0.2715624623	 1.2012986258	 0.122301
H	-1.1333259409	-1.0462492661	-1.9116585113	 0.073322
26.6341	155.4689	212.0764	226.6331	290.6586	327.3556	421.1287	499.4864	612.532	876.2302	933.6432	946.0947	962.4247	1046.0799	1131.8373	1155.1547	1190.236	1229.7683	1362.6074	1375.4568	1404.6632	1420.6863	1441.8013	1479.8071	1485.5413	1494.6617	1509.3605	1862.6851	2934.0426	3009.6235	3042.3507	3046.3106	3117.2341	3121.5875	3122.5513	3125.0679
CC(C)OC=O	CC(C)OC=O	
InChI=1S/C4H8O2/c1-4(2)6-3-5/h3-4H,1-2H3	InChI=1S/C4H8O2/c1-4(2)6-3-5/h3-4H,1-2H3
