16
gdb 1670	4.30196	1.82583	1.35083	14.6499	63.56	-0.1706	-0.0323	0.1383	873.4033	0.135678	-362.87621	-362.867766	-362.866822	-362.909906	29.041	
C	 0.076411755	 1.5746593366	 0.0532899819	-0.403791
C	-0.0158536259	 0.0531011319	-0.0044573356	-0.125504
C	-1.410968771	-0.4945924447	-0.0726616929	-0.194385
N	-2.1771024272	-0.2120973906	 1.2557548456	-0.426347
H	-2.1627925755	 0.7937995717	 1.4413974134	 0.323301
H	-3.1478986181	-0.5361967618	 1.2457407815	 0.314522
H	-1.6845468136	-0.6700456887	 2.0253471373	 0.321711
C	 0.7603515408	-0.5724325962	-1.2993257523	 0.373642
O	 1.6861557984	 0.1276164451	-1.7088857983	-0.440952
O	 0.2920511643	-1.6705667613	-1.652390975	-0.477653
H	 1.1112472392	 1.8484714921	-0.1627358071	 0.171157
H	-0.5427750063	 2.037295639	-0.7252769962	 0.111691
H	-0.2068025706	 2.0164363419	 1.0233090101	 0.052762
H	 0.4986819346	-0.3941066337	 0.8608851211	 0.070587
H	-2.0207384091	-0.022927908	-0.8470903405	 0.149097
H	-1.391660745	-1.5737093234	-0.2202639833	 0.180162
33.7676	70.4452	177.4719	192.6726	220.524	270.856	324.3679	397.3871	475.6588	581.6443	708.387	753.2834	776.7441	812.4932	871.2809	946.4278	963.1638	1046.2162	1140.3958	1167.1113	1211.3421	1228.0843	1307.2424	1334.6714	1386.2613	1401.7634	1424.7009	1474.8292	1480.846	1496.0557	1635.5879	1658.3676	1811.35	2958.0841	2983.7767	3056.6306	3089.1341	3131.2761	3173.3679	3387.6378	3487.6122	3506.7509
CC(C[NH3+])C([O-])=O	C[C@@H](C[NH3])C(=O)[O]	
InChI=1S/C4H9NO2/c1-3(2-5)4(6)7/h3H,2,5H2,1H3,(H,6,7)	InChI=1S/C4H9NO2/c1-3(2-5)4(6)7/h3H,2H2,1,5H3/t3-/m0/s1
