14
gdb 3656	3.6937	3.2725	1.76251	2.3151	59.64	-0.1973	0.0303	0.2276	692.5555	0.11551	-320.776472	-320.769428	-320.768484	-320.807493	25.132	
C	-0.0672310846	 1.5255640297	 0.114496638	-0.514441
C	 0.0023306515	 0.0429463628	-0.0265492734	 0.338119
C	-0.0133301673	-0.7585609602	-1.1571954052	 0.086492
N	-0.1474392095	-0.3051924854	-2.4910687515	-0.61318
C	 0.061485299	-2.0818287664	-0.6642311189	-0.064827
N	 0.1181557054	-2.1151641781	 0.665465552	-0.23247
N	 0.0955228618	-0.8202112871	 1.0239745443	-0.251029
H	 0.9228532018	 1.9912529759	 0.2015841293	 0.131278
H	-0.556030562	 1.9498115395	-0.7672846612	 0.150314
H	-0.6469270186	 1.8206985164	 0.9957651621	 0.127614
H	 0.6525504238	 0.2388174062	-2.7955053743	 0.240553
H	-0.2490579171	-1.0826282646	-3.1319951823	 0.239434
H	 0.0638772045	-3.0045827017	-1.2278081359	 0.096456
H	 0.1338199411	-0.5853715071	 2.0012242768	 0.265686
88.3792	139.0488	230.7206	243.7012	310.9911	425.376	477.1505	647.9734	667.2861	698.6843	727.6052	814.3224	861.8424	946.1385	1000.3885	1061.6425	1101.5208	1150.8566	1236.6572	1264.0697	1310.7159	1398.0918	1415.4721	1448.7006	1483.8184	1493.0091	1540.0057	1640.5516	1660.3049	3018.7691	3073.9062	3112.2575	3231.7104	3512.0622	3598.2136	3670.9603
CC1=C(N)C=NN1	Cc1c(N)cn[nH]1	
InChI=1S/C4H7N3/c1-3-4(5)2-6-7-3/h2H,5H2,1H3,(H,6,7)	InChI=1S/C4H7N3/c1-3-4(5)2-6-7-3/h2H,5H2,1H3,(H,6,7)
