14
gdb 3459	4.71653	2.66184	2.63733	1.8555	57.23	-0.2388	-0.0011	0.2377	595.1662	0.116283	-324.563073	-324.557647	-324.556703	-324.592125	21.244	
O	-0.0006557436	-0.0161864955	-0.1937956748	-0.329361
C	-0.0128500461	 1.1560510553	 0.0427685983	 0.416607
C	-1.0569308105	 2.2953344245	 0.0512515738	-0.122271
C	-0.8023853724	 2.9968851604	 1.3933133543	-0.200723
C	 0.7665295923	 3.0178382274	 1.3702803431	-0.200725
C	 1.0002118488	 2.3228295585	 0.0210385255	-0.12227
N	-0.0505516838	 3.0155804314	-0.8318145469	-0.316357
H	-2.0760424875	 2.1808245879	-0.31263246	 0.091666
H	-1.2275879378	 4.0023749634	 1.3980241407	 0.116144
H	-1.2132309064	 2.436436989	 2.2364366474	 0.111884
H	 1.1646905741	 4.0343230456	 1.3629194808	 0.116143
H	 1.2167614196	 2.4688753011	 2.200753571	 0.111886
H	 2.0108957176	 2.2354522389	-0.3726567809	 0.091666
H	-0.0583227843	 2.5813341922	-1.7557704422	 0.23571
174.9981	256.4856	440.718	466.6385	627.1133	655.7632	742.6927	806.9479	831.7849	876.3014	907.5113	915.0258	969.7803	988.9195	1034.1647	1063.9289	1072.2107	1131.1947	1160.636	1175.0255	1239.5863	1251.7257	1268.2658	1303.1269	1332.0646	1342.0416	1479.4235	1499.1895	1885.3123	3067.7272	3076.5281	3113.0388	3129.8759	3147.5361	3150.4413	3458.6702
O=C1C2CCC1N2	O=C1[C@H]2CC[C@@H]1N2	
InChI=1S/C5H7NO/c7-5-3-1-2-4(5)6-3/h3-4,6H,1-2H2	InChI=1S/C5H7NO/c7-5-3-1-2-4(5)6-3/h3-4,6H,1-2H2/t3-,4+
