14
gdb 363	9.81743	2.15461	1.81196	3.5856	51.35	-0.2383	0.067	0.3052	689.1369	0.119461	-303.787203	-303.779425	-303.778481	-303.819322	25.314	
C	 0.0064306911	 1.4470088287	-0.0599014413	-0.320034
N	-0.0489342526	 0.002660986	 0.0760247196	-0.354941
C	 0.6570181337	-0.6151875181	 1.0927937354	 0.48627
O	 1.1868842004	-0.0034568114	 2.0045529697	-0.403629
N	 0.7049355319	-1.9929602619	 0.9768715761	-0.354947
C	 1.2119817636	-2.7877469469	 2.0809278543	-0.319999
H	 0.8531579054	 1.7872784719	-0.671660044	 0.117535
H	-0.9210493944	 1.8149810783	-0.508198289	 0.117264
H	 0.1182919087	 1.8713053169	 0.9379127588	 0.166227
H	-0.1710745989	-0.5224827731	-0.7757516435	 0.23263
H	-0.0019997922	-2.4248546788	 0.4024696028	 0.232624
H	 0.4360384994	-3.0454753833	 2.8147332722	 0.117541
H	 1.6570991802	-3.7119784294	 1.7011280501	 0.117259
H	 1.9769158937	-2.2011674488	 2.589817649	 0.166199
73.177	74.6146	117.3355	174.3719	232.0214	336.1167	398.0446	490.3774	515.6028	721.6762	765.8877	923.0441	1047.4598	1143.0059	1150.0338	1158.1749	1183.7666	1192.5831	1252.8046	1439.4612	1443.2192	1482.1176	1489.9364	1498.7918	1505.557	1531.9601	1568.2622	1788.5989	3009.6582	3011.0293	3083.7299	3083.8108	3157.0871	3157.3676	3615.5932	3620.972
CNC(=O)NC	CNC(=O)NC	
InChI=1S/C3H8N2O/c1-4-3(6)5-2/h1-2H3,(H2,4,5,6)	InChI=1S/C3H8N2O/c1-4-3(6)5-2/h1-2H3,(H2,4,5,6)
