16
gdb 1661	4.84878	1.85396	1.3759	4.4338	58.89	-0.2478	0.0219	0.2698	868.5575	0.13534	-362.937857	-362.929354	-362.92841	-362.97126	28.767	
C	-0.099976731	 1.3952438947	-0.0375454787	-0.345785
N	-0.0221698974	-0.0569786539	-0.0174417871	-0.083734
C	 0.0105369346	-0.6717677629	 1.2955819133	-0.342682
C	 0.0148206641	-0.7431059729	-1.1898568155	 0.397013
O	-0.0143322944	-0.1949975879	-2.2865823486	-0.403545
C	 0.0970664878	-2.2790498679	-1.1580307982	-0.15166
O	 0.1234003188	-2.7658136676	-2.4652654917	-0.424508
H	 0.7664358807	 1.8333781378	 0.4730016712	 0.125658
H	-0.1171542926	 1.7252930055	-1.0745003758	 0.173412
H	-1.0087417847	 1.7382953401	 0.4721227698	 0.125664
H	-0.8916739468	-0.4132546221	 1.8647114384	 0.132998
H	 0.0687638132	-1.7561632148	 1.2255842657	 0.152466
H	 0.8796410138	-0.3181538795	 1.8650826905	 0.132998
H	 0.9999497109	-2.5864244834	-0.6064289922	 0.10881
H	-0.7680601343	-2.6810814193	-0.6067870377	 0.108809
H	 0.0805420374	-1.9641250559	-3.0167548934	 0.294087
44.9374	103.8387	137.2325	155.0603	230.351	245.254	368.3618	397.6551	479.9602	487.7414	583.0913	617.5332	807.1216	970.7661	1032.8829	1083.0599	1125.1926	1129.4222	1179.4443	1182.4156	1263.2954	1284.9768	1303.9339	1426.8381	1433.9175	1477.0645	1480.0267	1480.3356	1500.2161	1502.6649	1512.6461	1552.0961	1742.1579	2970.8835	2990.1563	3012.3739	3020.358	3057.0181	3067.2243	3167.4004	3174.0015	3626.4301
CN(C)C(=O)CO	CN(C)C(=O)CO	
InChI=1S/C4H9NO2/c1-5(2)4(7)3-6/h6H,3H2,1-2H3	InChI=1S/C4H9NO2/c1-5(2)4(7)3-6/h6H,3H2,1-2H3
