15
gdb 2926	6.61015	1.76666	1.43141	2.4493	59.65	-0.2252	0.0257	0.2509	822.0886	0.124847	-345.645388	-345.638165	-345.637221	-345.677115	24.986	
O	-0.0080826909	 1.4198333005	 0.0579059188	-0.412415
C	-0.0137547939	 0.0051387762	 0.0061334917	-0.180305
C	-1.4213394971	-0.487761742	-0.0157585466	 0.294063
C	-2.5458764704	 0.2195697055	 0.0057879763	-0.189139
C	-3.72928528	-0.7021582559	-0.0305465258	-0.106185
O	-3.1808546396	-2.0191016909	-0.0756484796	-0.265879
C	-1.7601320576	-1.9558996544	-0.0687974508	-0.149353
H	 0.9068754995	 1.7142003508	 0.0689417451	 0.291083
H	 0.515695103	-0.3674939177	-0.8890007464	 0.098626
H	 0.510881826	-0.4320119675	 0.8745320405	 0.098593
H	-2.6179601749	 1.297663067	 0.0438342225	 0.116655
H	-4.3741306308	-0.5986670879	 0.8568869944	 0.103256
H	-4.3687323953	-0.5358733976	-0.9123199866	 0.103255
H	-1.357787807	-2.4472344182	-0.9706459587	 0.09887
H	-1.3634847809	-2.5097547778	 0.7986940651	 0.098879
78.9695	103.3774	199.3178	203.3598	242.6395	417.8386	436.7652	661.6281	776.9197	811.8509	919.1584	923.7355	976.1936	996.1469	1042.6045	1071.9545	1083.3115	1116.4589	1172.8954	1192.2647	1219.0856	1224.2018	1253.1534	1298.3529	1362.8976	1398.853	1470.4038	1507.5747	1517.9493	1530.4658	1740.2483	2939.072	2951.3263	2957.6798	2969.9271	2971.641	2984.3051	3237.9806	3838.7882
OCC1=CCOC1	OCC1=CCOC1	
InChI=1S/C5H8O2/c6-3-5-1-2-7-4-5/h1,6H,2-4H2	InChI=1S/C5H8O2/c6-3-5-1-2-7-4-5/h1,6H,2-4H2
