16
gdb 809	3.46941	1.97798	1.393	2.0392	59.69	-0.2503	0.0051	0.2553	881.0455	0.13466	-362.87271	-362.864226	-362.863282	-362.905493	29.764	
C	 0.5320025253	 0.137193315	-1.4479036695	-0.37485
C	-0.0075876642	-0.0821327212	-0.0216609904	-0.274363
C	-1.4648093818	-0.457510669	-0.0144070614	 0.33363
C	-1.8489185777	-1.90640087	 0.1724155691	-0.1054
O	-3.2265274086	-2.1504695084	 0.0869628578	-0.423732
N	-2.4425903024	 0.3472325303	-0.165421348	-0.184698
O	-2.0397983403	 1.6787893305	-0.3328600727	-0.403341
H	 1.5938382314	 0.3980649335	-1.4175058285	 0.118575
H	 0.4239945485	-0.7660505307	-2.0564375294	 0.121142
H	-0.0097159583	 0.9484752229	-1.9388530351	 0.143148
H	 0.5661254212	-0.8716712094	 0.4761620955	 0.104897
H	 0.1198443903	 0.8364097046	 0.5592255	 0.132678
H	-1.310332888	-2.5051155065	-0.5817406261	 0.107399
H	-1.4574760857	-2.2341829815	 1.1515663787	 0.105901
H	-3.6426251707	-1.2836461501	-0.0215030207	 0.290354
H	-2.880758209	 2.14158626	-0.4104255994	 0.308661
70.5454	117.7742	205.1509	213.4275	231.3751	284.5698	306.3891	319.5763	398.7477	463.2898	594.7668	657.4849	778.8703	824.7256	971.7258	1001.6191	1011.1251	1070.9835	1098.2398	1123.3996	1227.1963	1254.5826	1291.7359	1317.5113	1353.3226	1403.5132	1414.7009	1463.3382	1481.4489	1497.141	1507.7118	1509.4673	1744.5476	2954.8176	2971.0215	3043.1181	3044.3809	3089.0869	3112.5304	3135.4962	3727.183	3821.1876
CCC(CO)=NO	CCC(=NO)CO	
InChI=1S/C4H9NO2/c1-2-4(3-6)5-7/h6-7H,2-3H2,1H3	InChI=1S/C4H9NO2/c1-2-4(3-6)5-7/h6-7H,2-3H2,1H3
