17
gdb 4457	3.49216	1.69272	1.15646	0.7328	72.47	-0.1708	0.0656	0.2364	1025.3624	0.141382	-363.908786	-363.899956	-363.899012	-363.942002	31.893	
C	-0.1136074937	 1.5041553312	 0.1171061915	-0.506785
C	-0.0141034315	 0.0232467711	-0.0352720278	 0.205282
C	 0.0235609849	-0.7939939925	-1.1414695994	 0.231221
C	-0.0290431767	-0.3787864462	-2.5808934255	-0.504943
C	 0.124786133	-2.1523551558	-0.6783905621	-0.390969
C	 0.1442321892	-2.1022373411	 0.6907512379	 0.378324
O	 0.2255801651	-3.0477763198	 1.6638553691	-0.437686
N	 0.0613057475	-0.7998183078	 1.0845868993	-0.345147
H	 0.7516110912	 1.9291798056	 0.6436513169	 0.120306
H	-0.1629874857	 1.9836120385	-0.8627614554	 0.134416
H	-1.0109925069	 1.8076849192	 0.6730439221	 0.120311
H	 0.866638335	-0.6982390201	-3.1278444495	 0.119729
H	-0.8902695748	-0.8190501023	-3.0984938257	 0.119725
H	-0.1054903298	 0.7068283453	-2.6883583911	 0.114813
H	 0.1756987392	-3.0417160978	-1.2885837995	 0.078205
H	 0.2778547039	-3.9088712238	 1.2389619808	 0.305513
H	 0.05671294	-0.4996999437	 2.0437921686	 0.257684
71.2743	118.4093	184.9765	211.401	229.3304	274.5317	290.7585	319.4285	419.9084	486.6333	591.1286	629.4432	643.9893	662.7206	724.8696	787.0181	984.0181	991.3371	1045.6348	1055.6912	1064.7861	1161.3319	1168.3503	1191.1223	1255.6252	1328.7855	1408.3046	1426.7016	1458.4726	1477.2787	1482.2209	1495.2656	1498.1549	1540.5649	1597.3765	1660.3749	3004.4719	3018.4117	3041.7627	3061.1916	3103.221	3125.0501	3235.957	3681.5269	3850.6898
CC1=C(C)C=C(O)N1	Cc1c(C)cc(O)[nH]1	
InChI=1S/C6H9NO/c1-4-3-6(8)7-5(4)2/h3,7-8H,1-2H3	InChI=1S/C6H9NO/c1-4-3-6(8)7-5(4)2/h3,7-8H,1-2H3
