18
gdb 4814	5.83517	1.22657	1.09445	3.6016	75.45	-0.2128	0.0356	0.2484	1137.7563	0.155012	-344.032145	-344.023814	-344.02287	-344.065553	29.648	
C	 0.0338834934	 1.5579088632	-0.1831753546	-0.364769
C	-0.0232410082	 0.0429627261	 0.0696286992	-0.285067
C	-1.4132282751	-0.5079569518	-0.0155082754	 0.288595
C	-1.9269971338	-1.4159250977	-0.9076345422	-0.222375
N	-3.2548373718	-1.5807734542	-0.5686626862	 0.024894
C	-4.216425522	-2.4454980538	-1.218683771	-0.336957
C	-3.4770084385	-0.7695350566	 0.5035380779	-0.004219
N	-2.4001885072	-0.1113522943	 0.8642245751	-0.323207
H	 1.0536963373	 1.9382196573	-0.0660730472	 0.102812
H	-0.3065115156	 1.7991126849	-1.1955061011	 0.109445
H	-0.6150537997	 2.0834185942	 0.522390337	 0.137332
H	 0.6173252727	-0.482630891	-0.6478131408	 0.092135
H	 0.3840196407	-0.1673529403	 1.066558008	 0.110148
H	-1.4851103105	-1.9512969515	-1.7325586741	 0.119069
H	-3.9047296052	-3.4933394524	-1.1619699075	 0.143178
H	-5.18110197	-2.3430270456	-0.7177440512	 0.144666
H	-4.3410587548	-2.1728360571	-2.2714664867	 0.143105
H	-4.4480765315	-0.7090402793	 0.9744921109	 0.121217
52.1426	89.4792	132.7606	199.4253	219.418	288.8076	375.3428	427.0136	600.8735	638.1556	708.8459	726.4497	744.8015	791.8186	818.9781	956.0363	1007.1611	1058.63	1067.8191	1082.1584	1090.4362	1151.6781	1184.5973	1251.0256	1280.856	1329.9112	1350.0351	1392.4185	1402.9629	1423.2811	1457.2539	1478.3376	1482.6734	1494.7694	1508.3249	1519.0926	1543.205	1597.9159	3025.0304	3035.9552	3037.2331	3063.6711	3096.442	3103.3504	3122.2737	3134.3712	3236.6966	3262.3571
CCC1=CN(C)C=N1	CCc1cn(C)cn1	
InChI=1S/C6H10N2/c1-3-6-4-8(2)5-7-6/h4-5H,3H2,1-2H3	InChI=1S/C6H10N2/c1-3-6-4-8(2)5-7-6/h4-5H,3H2,1-2H3
