19
gdb 3355	4.15266	2.84906	2.19769	0.1229	69.6	-0.2791	0.0813	0.3604	693.2588	0.174935	-273.793804	-273.78761	-273.786665	-273.823765	24.855	
C	-0.0878152151	 1.4431501124	-0.3250047217	-0.220871
C	 1.3172468002	 1.6713603265	 0.3006327569	-0.220871
C	 1.4200586449	 0.1560828007	 0.6457897234	 0.011437
C	 1.2879268566	-0.2100698747	 2.1325356913	-0.208901
C	-0.2152958161	-0.056888381	 2.4406198822	-0.205115
C	-0.9023387192	-0.5658195774	 1.1572576715	-0.208901
C	-0.0019688865	-0.0748843648	 0.0125935265	 0.011438
H	-0.907202618	 1.9724273948	 0.1715630343	 0.092016
H	-0.1475720406	 1.6625676687	-1.393928095	 0.094744
H	 2.0741846764	 2.0234183635	-0.4046421268	 0.094744
H	 1.3345348062	 2.3365365405	 1.1697424947	 0.092016
H	 2.2579824117	-0.3537864733	 0.1654745171	 0.057165
H	 1.5881034087	-1.2545728861	 2.2827431674	 0.091548
H	 1.9232748687	 0.4058893127	 2.7779244072	 0.090238
H	-0.5259485174	-0.6013899071	 3.3368953456	 0.09158
H	-0.4614488787	 0.9988732091	 2.6083141511	 0.098784
H	-0.9245517738	-1.6626865107	 1.1639102224	 0.091548
H	-1.9372948996	-0.2211586007	 1.0588988432	 0.090238
H	-0.0479451884	-0.7283142832	-0.8613062512	 0.057164
89.6832	214.9433	332.2406	365.4623	572.78	579.887	735.479	738.3911	816.1051	824.8915	846.9048	887.5055	891.438	947.892	958.447	961.3244	993.2505	1004.4759	1068.0523	1074.3383	1154.005	1157.2121	1183.1163	1191.0144	1237.7411	1252.3473	1265.1022	1281.1861	1282.7864	1316.4114	1318.6558	1333.8069	1354.1347	1355.9936	1473.5565	1480.0505	1486.3216	1490.6108	1505.6911	3024.4081	3025.6471	3031.377	3043.4579	3050.9098	3068.3419	3072.4932	3074.324	3082.4919	3090.222	3090.3825	3110.1457
C1CC2CCCC12	C1C[C@H]2CCC[C@@H]12	
InChI=1S/C7H12/c1-2-6-4-5-7(6)3-1/h6-7H,1-5H2	InChI=1S/C7H12/c1-2-6-4-5-7(6)3-1/h6-7H,1-5H2/t6-,7+
