18
gdb 4015	3.19106	1.35948	1.19346	8.7692	71.67	-0.146	0.0102	0.1562	1081.7132	0.153041	-418.138616	-418.129558	-418.128614	-418.172491	32.25	
C	-0.5545458333	 1.0627855183	-0.6954693153	-0.342722
N	-0.1394540069	-0.3513264106	-0.5693459448	-0.252678
H	-0.4340710171	-0.7581094914	 0.3203845278	 0.293131
H	-0.5459040372	-0.9785693569	-1.2983340707	 0.303318
C	 1.4449695128	-0.7056200405	-0.6399706235	-0.247484
C	 1.5031174966	-2.126754237	-0.948745937	 0.138471
C	 1.0385739629	-2.5664257834	-2.3022765382	-0.16227
O	-0.4261289523	-2.6079186688	-2.2941996889	-0.448735
N	 1.2296883587	-2.9058506196	 0.1104919006	-0.080612
O	 0.720037279	-4.0447574609	-0.1500850866	-0.459666
H	-0.0785494846	 1.6498454786	 0.0922634966	 0.164334
H	-0.231532997	 1.4356842531	-1.6687683912	 0.170058
H	-1.6400794535	 1.1519879166	-0.6154033766	 0.1639
H	 1.821226843	-0.019972862	-1.4031101954	 0.120786
H	 1.8196970669	-0.449483459	 0.3524288128	 0.137186
H	 1.3219585656	-1.8762673297	-3.1031404578	 0.082697
H	 1.414228613	-3.5658672972	-2.537447578	 0.126417
H	-0.5704900865	-3.3157320895	-1.6370840039	 0.293868
67.2079	110.6423	146.6408	167.3333	228.0023	267.0243	304.6554	322.1401	367.933	395.3771	532.9989	673.8622	697.2944	762.0014	843.3659	878.0403	914.06	935.0423	983.4132	1006.0816	1088.698	1149.5639	1169.9427	1264.1976	1289.1626	1325.5547	1337.8942	1352.4193	1384.3925	1398.5093	1425.8894	1431.1459	1454.1396	1462.0971	1476.5414	1496.2638	1499.6757	1681.5769	3048.9345	3061.6135	3067.6635	3097.4347	3103.4749	3141.6792	3147.2829	3156.6282	3465.5258	3596.2019
C[NH2+]CC(CO)=N[O-]	C[NH2]C[C](CO)[N][O]	
InChI=1S/C4H10N2O2/c1-5-2-4(3-7)6-8/h5,7-8H,2-3H2,1H3	InChI=1S/C4H10N2O2/c1-5-2-4(3-7)6-8/h7H,2-3,5H2,1H3
