15
gdb 1551	4.02162	1.68703	1.26032	1.8302	59.54	-0.2598	0.0296	0.2894	936.8375	0.121879	-345.596027	-345.587465	-345.58652	-345.629143	29.347	
C	 0.6570888765	 1.3016363358	-0.0422267323	-0.224833
O	 0.7499639695	-0.0965495682	-0.1800885329	-0.227614
C	-0.167534635	-0.6209592444	-1.1046403868	-0.06507
C	 0.0545647626	-2.1387714192	-1.2068841597	-0.050356
O	-0.9943596479	-2.7336026673	-1.9647067897	-0.417751
C	 1.3738477165	-2.4638978248	-1.7497362148	 0.314131
C	 2.4304174941	-2.7288915143	-2.2578898271	-0.473165
H	 0.8620953418	 1.8189216318	-0.9926373452	 0.106612
H	-0.3393040131	 1.6122557492	 0.309824951	 0.105804
H	 1.4035076661	 1.6067650132	 0.6947991277	 0.130308
H	-1.2079992861	-0.4525880246	-0.7843745174	 0.098342
H	-0.0410782764	-0.1611943522	-2.0998275054	 0.083447
H	-0.0339161587	-2.5533311015	-0.1960606791	 0.129309
H	-0.7740930234	-2.6288201875	-2.8966305319	 0.28844
H	 3.3727158237	-2.9693539258	-2.6848983165	 0.202396
72.9787	98.6563	154.8119	207.0905	220.3998	241.017	273.2591	387.5495	415.6083	571.2872	590.5654	635.1826	672.0463	832.8258	998.4583	1030.2539	1088.2383	1097.9388	1170.178	1183.5113	1227.8922	1238.4453	1265.068	1340.0159	1405.9273	1415.636	1480.3123	1486.5113	1501.887	1524.8491	2234.9394	2955.4036	2973.9764	3001.0152	3017.266	3054.0365	3117.4194	3503.4398	3812.9984
COCC(O)C#C	COC[C@@H](O)C#C	
InChI=1S/C5H8O2/c1-3-5(6)4-7-2/h1,5-6H,4H2,2H3	InChI=1S/C5H8O2/c1-3-5(6)4-7-2/h1,5-6H,4H2,2H3/t5-/m0/s1
