15
gdb 4789	6.73372	1.32136	1.11991	1.937	65.1	-0.1766	0.0456	0.2222	1034.2811	0.12032	-396.008061	-396.000133	-395.999188	-396.040281	28.773	
C	-0.0812631164	 1.407086517	 0.1660203089	-0.328361
N	-0.0711672537	-0.0035962245	-0.1833914638	-0.382406
C	-1.2035163856	-0.7592275589	-0.0951569744	 0.50761
N	-1.2707290619	-2.0589200609	-0.0217591484	-0.409425
C	-2.636989733	-2.3181522128	-0.0274166985	 0.271766
N	-3.0769894049	-3.6374890323	-0.0291080381	-0.59887
C	-3.3288917754	-1.1538629941	-0.0903064901	-0.147968
O	-2.3823010444	-0.1210736916	-0.1336642003	-0.193306
H	 0.8844094619	 1.8401107175	-0.1030412861	 0.130298
H	-0.8573502148	 1.9189274641	-0.4065844816	 0.153772
H	-0.2660735468	 1.591238872	 1.2341299909	 0.122531
H	 0.7570434238	-0.526541962	 0.0548998369	 0.257914
H	-2.3908453905	-4.2532942335	 0.3863942819	 0.250957
H	-3.9850078096	-3.7689272513	 0.3939799206	 0.244263
H	-4.3608909487	-0.8589092686	-0.1146798177	 0.121227
84.1747	132.4621	197.287	225.5652	264.2915	341.151	366.2915	487.897	548.9169	556.0714	641.3315	685.9999	732.945	761.037	774.5863	972.5836	1020.1259	1076.6562	1079.2794	1133.3946	1154.1591	1189.3483	1260.3559	1379.8454	1425.9065	1441.1272	1486.8655	1495.7635	1516.8722	1630.5594	1670.9325	1689.7794	3001.1142	3097.4745	3139.1517	3314.1284	3552.6184	3635.029	3651.3405
CNC1=NC(N)=CO1	CNc1nc(N)co1	
InChI=1S/C4H7N3O/c1-6-4-7-3(5)2-8-4/h2H,5H2,1H3,(H,6,7)	InChI=1S/C4H7N3O/c1-6-4-7-3(5)2-8-4/h2H,5H2,1H3,(H,6,7)
