14
gdb 3740	7.3369	2.04513	1.61925	2.5426	60.89	-0.1914	0.0299	0.2212	747.7096	0.115351	-320.769272	-320.762279	-320.761335	-320.800604	24.701	
C	 0.0197771448	 1.4147380556	 0.0520765454	-0.322062
N	-0.0318429017	-0.0276487851	-0.0196815654	 0.067913
C	-0.0346228165	-0.8027088304	-1.1431346587	-0.115917
C	-0.0104244218	-2.1191536582	-0.7185764268	 0.168987
N	-0.0887656875	-3.2876793382	-1.4963072859	-0.606972
C	 0.0101527956	-2.025108086	 0.6913319743	-0.055034
N	 0.0020128384	-0.7567520498	 1.1035060445	-0.263115
H	 1.0171046551	 1.7953009652	-0.197371307	 0.13462
H	-0.7089222893	 1.8555106068	-0.6343890347	 0.134972
H	-0.2256210282	 1.7017441856	 1.074336757	 0.159131
H	-0.0614446122	-0.3697173052	-2.1304830195	 0.114399
H	 0.3281415487	-3.1775130746	-2.4117345281	 0.240774
H	 0.3430357447	-4.0795176885	-1.0374199309	 0.243239
H	 0.0205272498	-2.8285183172	 1.4139078057	 0.099066
51.289	157.0298	166.9038	288.8695	335.4006	434.7469	614.6314	627.0007	664.493	724.1481	752.934	783.2996	841.5188	1005.0115	1031.5248	1074.4207	1103.8986	1148.7538	1205.7071	1239.8513	1374.7107	1403.5639	1429.9251	1455.123	1482.9606	1490.0031	1516.9782	1632.4441	1659.3803	3030.4203	3093.9844	3159.5025	3237.3115	3256.401	3536.0335	3623.0698
CN1C=C(N)C=N1	Cn1cc(N)cn1	
InChI=1S/C4H7N3/c1-7-3-4(5)2-6-7/h2-3H,5H2,1H3	InChI=1S/C4H7N3/c1-7-3-4(5)2-6-7/h2-3H,5H2,1H3
