9
gdb 3918	8.84153	2.16187	1.73712	2.4151	46.88	-0.2942	-0.1053	0.1889	633.355	0.0557	-375.370023	-375.364682	-375.363738	-375.399489	17.899	
O	-0.0116922208	-0.0213139376	-0.0002317775	-0.225223
C	 0.0087315577	 1.1805975914	 0.0083117113	 0.089826
C	 1.2563167289	 1.9856776747	 0.0014877328	 0.334399
N	 1.3279889995	 3.2870714971	 0.0098727364	-0.283065
C	 2.6821923045	 3.4877680513	-0.002086675	 0.045177
N	 3.4007490798	 2.3934893889	-0.017388416	-0.084838
O	 2.4500656981	 1.3819995824	-0.0148020193	-0.167576
H	-0.8989720908	 1.8128768079	 0.0219107622	 0.127805
H	 3.145883113	 4.463048434	 0.0000679252	 0.163495
124.6536	201.8483	271.6993	506.4119	662.9602	709.962	761.6555	932.6703	939.9353	980.8764	1024.6044	1028.5532	1182.5855	1265.8973	1335.897	1394.8006	1474.0559	1595.3998	1817.9314	2967.6885	3269.3993
O=CC1=NC=NO1	O=Cc1ncno1	
InChI=1S/C3H2N2O2/c6-1-3-4-2-5-7-3/h1-2H	InChI=1S/C3H2N2O2/c6-1-3-4-2-5-7-3/h1-2H
