13
gdb 380	7.05534	2.24882	1.81798	4.8739	50.26	-0.2534	0.0266	0.28	658.1766	0.109366	-282.667163	-282.660209	-282.659265	-282.697592	24.235	
N	 0.0795678113	 1.4918072925	-0.0156535397	-0.514768
C	 0.0118293213	 0.0308760541	-0.0038318961	-0.161659
C	 0.7825945733	-0.4895686396	 1.2388511695	-0.093201
N	 0.3107661059	 0.0422275253	 2.5181599131	-0.505897
C	 0.760973014	-1.9574357942	 1.2580754503	 0.282048
N	 0.7146481466	-3.1116485437	 1.240757539	-0.317422
H	 0.9603248023	 1.8044705748	-0.41272574	 0.23597
H	-0.6540451559	 1.8777185286	-0.5989177466	 0.241331
H	-1.0372642807	-0.2686174865	 0.0919307914	 0.118484
H	 0.4089310725	-0.4531712401	-0.9092616225	 0.106991
H	 1.8336046585	-0.186332393	 1.125549045	 0.127446
H	 0.1737225104	 1.0414204388	 2.374781528	 0.246328
H	-0.6061529594	-0.3458401569	 2.7259856783	 0.234347
122.9416	164.808	232.4533	247.4828	291.4328	344.7308	467.0136	540.935	579.3844	803.8538	880.0123	911.0972	944.7782	996.6414	1083.9125	1137.5843	1178.7263	1224.8442	1326.9868	1340.0025	1396.6042	1422.8618	1496.4014	1660.4624	1661.7033	2363.5566	2985.212	3008.4677	3076.9676	3469.1239	3506.0044	3550.8856	3588.1934
NCC(N)C#N	NC[C@@H](N)C#N	
InChI=1S/C3H7N3/c4-1-3(6)2-5/h3H,1,4,6H2	InChI=1S/C3H7N3/c4-1-3(6)2-5/h3H,1,4,6H2/t3-/m1/s1
