16
gdb 4923	6.85465	1.22936	1.05312	1.156	68.91	-0.1688	0.0536	0.2224	1096.1647	0.131404	-379.935035	-379.926966	-379.926022	-379.967199	30.008	
C	-0.0387409323	 1.4332737107	-0.0330546253	-0.323443
N	 0.0244354183	-0.002540731	 0.1690126159	-0.383672
C	-1.1670953898	-0.7133336492	 0.0478399475	 0.307963
C	-2.4399190657	-0.2288188669	 0.0099024769	-0.133388
O	-3.3359873006	-1.2902716487	-0.0436560006	-0.189939
C	-2.6060112758	-2.4208368491	-0.0541436205	 0.414183
N	-3.3318662205	-3.5971659503	-0.1882163596	-0.594964
C	-1.2712807848	-2.1515812552	 0.0026630335	-0.398216
H	 0.9668546313	 1.8549034356	 0.0358110795	 0.119029
H	-0.4802025993	 1.7221061433	-1.0012955233	 0.108642
H	-0.6468415884	 1.8856610998	 0.7584957806	 0.131131
H	 0.7858525262	-0.4387933891	-0.3315730753	 0.231592
H	-2.8798711406	 0.7506384084	 0.0304707434	 0.116639
H	-4.2619579877	-3.517997228	 0.2031886989	 0.253749
H	-2.8513402772	-4.3999382242	 0.1937294061	 0.253457
H	-0.4626778831	-2.8648681661	 0.0216172224	 0.087236
93.6657	175.2921	181.1016	212.4092	244.828	346.8044	371.9497	475.4339	544.7917	563.7681	638.784	662.0243	686.1805	720.4178	736.5037	770.558	964.837	992.4409	1074.4785	1094.4866	1129.6936	1153.99	1174.4166	1220.4896	1273.7025	1338.2695	1445.1658	1456.995	1479.9775	1510.5478	1526.8702	1611.593	1645.8477	1682.0664	2967.4638	3058.4976	3116.557	3253.9749	3309.2459	3546.4305	3580.5253	3646.6013
CNC1=COC(N)=C1	CNc1coc(N)c1	
InChI=1S/C5H8N2O/c1-7-4-2-5(6)8-3-4/h2-3,7H,6H2,1H3	InChI=1S/C5H8N2O/c1-7-4-2-5(6)8-3-4/h2-3,7H,6H2,1H3
