15
gdb 4189	4.85849	1.6329	1.32915	1.1915	72.55	-0.2185	-0.0328	0.1857	901.5222	0.120139	-362.621188	-362.61458	-362.613636	-362.651726	26.128	
O	-0.0906849056	 1.3325354349	 0.0126063863	-0.393348
N	 0.0349601946	-0.0671936197	 0.0418680652	-0.251915
C	-1.1094570851	-0.639578897	-0.000701876	 0.401985
C	-2.4615310438	-0.0646273439	-0.0348890615	-0.169753
C	-3.3746893122	-1.0480611226	 0.0367246672	-0.078765
C	-2.7380186446	-2.397247392	 0.0709596704	-0.086625
C	-1.9511749165	-2.7618892263	-1.1736404091	-0.278876
C	-1.2457228343	-2.1292401212	 0.0111888449	-0.122113
H	 0.8276722412	 1.6179921439	 0.0593982993	 0.306415
H	-2.6518037933	 0.9944007609	-0.1269360936	 0.120757
H	-4.449335997	-0.906669322	 0.0301225734	 0.108744
H	-3.1618983775	-3.1896353621	 0.6767836019	 0.096435
H	-1.7473976986	-3.8131914731	-1.348217769	 0.118258
H	-2.1087264133	-2.168869437	-2.0677712412	 0.123663
H	-0.523416824	-2.7208233727	 0.5577868718	 0.105138
142.539	236.7459	265.7828	362.6174	400.8328	443.0725	494.5306	687.8041	701.3719	748.5664	793.8421	813.2507	825.5516	883.0376	927.3309	955.9231	981.5314	989.3753	1021.6275	1065.0298	1078.2426	1092.7907	1120.4423	1190.5426	1231.6204	1322.2449	1339.6895	1369.3524	1414.5531	1477.5841	1623.5162	1721.4359	3130.9027	3177.5365	3200.663	3204.0239	3224.4657	3253.1579	3821.7765
ON=C1C=CC2CC12	ON=C1C=C[C@H]2C[C@@H]12	
InChI=1S/C6H7NO/c8-7-6-2-1-4-3-5(4)6/h1-2,4-5,8H,3H2	InChI=1S/C6H7NO/c8-7-6-2-1-4-3-5(4)6/h1-2,4-5,8H,3H2/t4-,5+/m0/s1
