17
gdb 1581	7.20468	1.10715	1.011	2.2295	56.91	-0.2576	0.0605	0.3181	1118.4464	0.146825	-383.976576	-383.967904	-383.96696	-384.009816	30.491	
O	-0.031229254	 1.4044310625	 0.0927585469	-0.422233
C	 0.0252702983	-0.0108652765	-0.0019220562	-0.072884
C	-1.4076505228	-0.5300325918	-0.0092930853	-0.198923
C	-1.496127492	-2.052586326	-0.0619174197	 0.091633
O	-0.8550504219	-2.6742460139	 1.0628113041	-0.439812
C	-2.9343454596	-2.5680755203	-0.1549650435	-0.06044
O	-2.9668513708	-3.9777861016	-0.1399238599	-0.424863
H	 0.8696206949	 1.7390845951	 0.1248418134	 0.286985
H	 0.5373224704	-0.3310104637	-0.9240574144	 0.087861
H	 0.5719927891	-0.4526396917	 0.8435276457	 0.096311
H	-1.9222937332	-0.1577283794	 0.8876357946	 0.099195
H	-1.9372168774	-0.1027514848	-0.8691760253	 0.113813
H	-0.9406489547	-2.4344182483	-0.9274292186	 0.097568
H	-1.2270332924	-2.2799282571	 1.8614490641	 0.282389
H	-3.5227550509	-2.1401184199	 0.6785412514	 0.071255
H	-3.4009989063	-2.2339738174	-1.0882001853	 0.108031
H	-2.3031714766	-4.2388302552	 0.5123139081	 0.284114
82.7221	93.4817	134.0625	164.973	268.5115	290.0367	338.8532	350.9752	396.6039	475.0632	518.3032	601.4514	795.3161	863.2363	957.6954	997.5516	1060.5012	1079.2787	1094.2827	1103.1208	1120.2208	1204.2146	1216.4629	1235.3195	1291.4989	1298.4548	1329.1361	1364.5438	1387.7369	1421.5065	1446.1465	1461.825	1484.573	1507.7858	1531.1218	2928.2907	2969.1151	3011.8235	3017.9735	3044.4967	3063.9733	3075.9797	3760.2791	3779.5958	3830.7301
OCCC(O)CO	OCC[C@@H](O)CO	
InChI=1S/C4H10O3/c5-2-1-4(7)3-6/h4-7H,1-3H2	InChI=1S/C4H10O3/c5-2-1-4(7)3-6/h4-7H,1-3H2/t4-/m1/s1
