16
gdb 4176	3.48744	1.82162	1.35611	1.9694	68.79	-0.2314	0.008	0.2394	911.5571	0.130034	-379.828259	-379.820641	-379.819697	-379.859948	28.845	
C	-0.0454117677	 1.6082044127	-0.0543315288	-0.408949
C	 0.0417415711	 0.0884167419	 0.0052714104	-0.083491
C	 0.6997608653	-0.6719230831	-1.1731629869	-0.057738
N	 2.0969254327	-0.2104047053	-1.245110326	-0.328703
C	 1.7241108028	-1.2869135614	-0.266927393	-0.167578
C	 1.1075674888	-0.5813560842	 0.8914850976	 0.477776
N	 1.3354188653	-0.6953681474	 2.1310135107	-0.271171
O	 0.441844998	 0.0972220642	 2.8815244762	-0.394311
H	 0.9169617129	 2.0318192134	-0.35017236	 0.140186
H	-0.8022146372	 1.9239864358	-0.7805146407	 0.108964
H	-0.3183635751	 2.0101035189	 0.9245618806	 0.135771
H	-0.93156178	-0.3522411416	 0.2521642732	 0.100075
H	 0.2021760745	-1.1090315655	-2.029362269	 0.100621
H	 2.533908435	-0.6862644726	-2.0352013285	 0.233741
H	 2.207987833	-2.2539254179	-0.2907299465	 0.108031
H	 0.7270992106	-0.0789400181	 3.7843490907	 0.306775
115.0028	168.7451	219.1845	234.37	279.3934	345.0152	423.682	476.9891	591.0159	623.1185	695.4408	765.0411	821.9336	825.7321	856.2904	912.8296	971.7597	999.5628	1046.2386	1064.2325	1106.885	1109.7851	1129.1741	1158.8661	1202.822	1283.7578	1314.4828	1341.2317	1361.2694	1400.9097	1416.1579	1490.8433	1505.917	1791.0351	3040.7795	3046.1907	3112.7353	3135.7868	3196.5967	3214.2076	3463.9205	3819.46
CC1C2NC2C1=NO	C[C@H]1[C@H]2N[C@H]2C1=NO	
InChI=1S/C5H8N2O/c1-2-3-5(6-3)4(2)7-8/h2-3,5-6,8H,1H3	InChI=1S/C5H8N2O/c1-2-3-5(6-3)4(2)7-8/h2-3,5-6,8H,1H3/t2-,3+,5+/m0/s1
