18
gdb 4772	5.76952	1.20283	1.07402	0.6057	75.79	-0.2072	0.0279	0.2351	1159.436	0.153713	-347.850078	-347.841761	-347.840816	-347.883184	30.202	
C	 0.0690132538	 1.5407790482	 0.2459580582	-0.370686
C	-0.0187415976	 0.0422909507	-0.0922382367	-0.290394
C	-1.4173231298	-0.4616861563	-0.1946518343	 0.390368
C	-2.1576849214	-0.9806583206	-1.2109453126	-0.387309
C	-3.4636140381	-1.2737801628	-0.6799800673	 0.268163
C	-4.6327683652	-1.8600987937	-1.4080775161	-0.499984
C	-3.4053007342	-0.9031625589	 0.6256265212	-0.117148
O	-2.1741077701	-0.4085598701	 0.9404172263	-0.187653
H	 1.112652205	 1.8589866997	 0.3289545377	 0.111285
H	-0.4134653415	 2.1445423592	-0.528691326	 0.120591
H	-0.4293400018	 1.7521150415	 1.1959339399	 0.131876
H	 0.4807026383	-0.1588991898	-1.045384573	 0.112016
H	 0.521922636	-0.53147001	 0.672012746	 0.11523
H	-1.8197610761	-1.1417742881	-2.2238564599	 0.099907
H	-4.3964116167	-2.8482543981	-1.8192993117	 0.128063
H	-5.4950802458	-1.9737643194	-0.7450108447	 0.122861
H	-4.9409246871	-1.228649548	-2.2494064391	 0.127953
H	-4.1215644476	-0.9269707436	 1.430989302	 0.124859
54.8	126.0583	139.2047	196.1607	254.4191	275.7439	367.0822	418.6059	579.473	625.4642	686.7507	719.6174	735.7613	785.1888	810.5618	940.3612	978.9364	986.459	1018.8317	1065.3002	1066.8388	1087.7516	1163.0092	1168.2008	1233.5578	1285.5321	1307.618	1355.7499	1397.8591	1409.4341	1421.6514	1474.492	1483.2825	1495.7845	1499.0461	1506.5966	1588.4978	1662.6845	3021.5826	3027.3254	3040.8695	3076.9431	3078.0349	3108.0581	3111.5359	3122.1034	3243.8064	3269.3931
CCC1=CC(C)=CO1	CCc1cc(C)co1	
InChI=1S/C7H10O/c1-3-7-4-6(2)5-8-7/h4-5H,3H2,1-2H3	InChI=1S/C7H10O/c1-3-7-4-6(2)5-8-7/h4-5H,3H2,1-2H3
