16
gdb 3409	3.89601	2.81085	2.24346	2.2621	60.64	-0.2272	0.0674	0.2947	660.9111	0.136746	-325.718074	-325.711226	-325.710282	-325.74846	25.937	
C	-0.1436607488	 1.5157601713	-0.0958474102	-0.311415
N	 0.0908671816	 0.0876457232	 0.0856264159	-0.073342
C	 1.3586045108	-0.5549680548	-0.1389814192	-0.037081
C	 2.5572176946	 0.2937730968	 0.322150568	-0.30397
C	 1.943198394	 0.2834360881	 1.766479659	 0.112624
O	 1.6363039861	 1.4960456042	 2.4194058243	-0.427593
C	 0.7292530354	-0.4934742794	 1.2420083831	-0.063502
H	 0.6554709026	 2.170554249	 0.2658276498	 0.121583
H	-0.3090112256	 1.7029001339	-1.1620009947	 0.112821
H	-1.0591560232	 1.7816821903	 0.4410610212	 0.12401
H	 1.4057420784	-1.3922145326	-0.8270100506	 0.092458
H	 3.5116399604	-0.2347279574	 0.2681435323	 0.101518
H	 2.6645675789	 1.272764546	-0.1529211273	 0.10217
H	 2.542250967	-0.3698889096	 2.4162165605	 0.076236
H	 2.4574942353	 1.883168437	 2.7393267828	 0.284556
H	 0.1896516425	-1.249323466	 1.8032764451	 0.088928
130.2129	194.9876	248.5677	279.5967	325.5962	411.0686	470.2641	628.0177	702.5385	743.6231	822.7909	864.0087	896.0813	960.4526	988.8777	1027.5418	1036.0568	1071.8213	1107.7733	1157.6344	1181.9085	1187.8766	1197.6609	1228.8965	1256.0994	1288.9579	1314.9097	1390.9654	1421.7094	1455.8984	1479.6678	1491.194	1508.9038	3000.411	3028.0233	3061.494	3095.9621	3104.8296	3115.0166	3160.5253	3172.5478	3813.595
CN1C2CC(O)C12	CN1[C@H]2C[C@@H](O)[C@@H]12	
InChI=1S/C5H9NO/c1-6-3-2-4(7)5(3)6/h3-5,7H,2H2,1H3	InChI=1S/C5H9NO/c1-6-3-2-4(7)5(3)6/h3-5,7H,2H2,1H3/t3-,4+,5-,6?/m0/s1
