10
gdb 924	6.18662	2.94248	1.99406	4.2703	49.71	-0.2704	-0.0708	0.1996	573.4433	0.070235	-355.556836	-355.551792	-355.550848	-355.585782	18.158	
O	-0.0353430557	-0.0540013829	 0.0027344171	-0.360206
C	 0.02662276	 1.1494673265	 0.009349017	 0.452179
N	-1.173487487	 1.9198260021	 0.0291621453	-0.315132
C	-1.1677256704	 3.2638759845	 0.0362520453	 0.132021
N	-0.0748280943	 3.968219424	 0.0254494488	-0.272702
C	 1.0690140508	 3.2073299896	 0.0060194758	 0.085859
N	 1.1850309537	 1.9126298522	-0.002506463	-0.293038
H	-2.0377304095	 1.3937236135	 0.0377586457	 0.280496
H	-2.1364790894	 3.7592520193	 0.0517544953	 0.152335
H	 1.9933492519	 3.7829668212	-0.0034562672	 0.138189
133.3616	362.0816	491.1265	504.1226	570.0304	680.0591	740.7846	821.1078	843.2653	980.7363	984.1386	1042.7331	1061.4379	1130.6923	1224.2849	1396.8858	1422.8778	1465.9348	1554.624	1668.143	1842.4653	3152.8866	3162.4286	3593.3228
O=C1NC=NC=N1	O=c1[nH]cncn1	
InChI=1S/C3H3N3O/c7-3-5-1-4-2-6-3/h1-2H,(H,4,5,6,7)	InChI=1S/C3H3N3O/c7-3-5-1-4-2-6-3/h1-2H,(H,4,5,6,7)
