18
gdb 301	4.93979	2.82688	2.43235	0.0963	64.09	-0.2558	0.0887	0.3445	649.5784	0.16489	-235.698987	-235.691505	-235.69056	-235.729399	27.904	
C	-0.064093771	 1.526662384	-0.1006146302	-0.410789
C	 0.044943145	 0.0222921366	 0.0234754847	-0.012361
C	 1.3630017009	-0.6927244193	-0.1815820222	-0.328137
C	 0.7132115863	-0.6865393736	 1.1856959153	 0.361166
C	 1.3689239688	 0.1089389634	 2.299293647	-0.45236
C	 0.0744435814	-1.9787780728	 1.6616714567	-0.445662
H	 0.8390090166	 2.0360496885	 0.2468065351	 0.114212
H	-0.2173234607	 1.8170710191	-1.1462045116	 0.115433
H	-0.9088501652	 1.9181951007	 0.4778652526	 0.113872
H	-0.8233308606	-0.5017583527	-0.3709911469	 0.075222
H	 1.3757723627	-1.6174437246	-0.7499301245	 0.101878
H	 2.2469057643	-0.0771879243	-0.3222965934	 0.10131
H	 1.8591006451	 1.0147181723	 1.9340944045	 0.112385
H	 0.6362963877	 0.4085812956	 3.0586993846	 0.111101
H	 2.1330995986	-0.4953184479	 2.8027394011	 0.112518
H	 0.8154435533	-2.6364551916	 2.1324007487	 0.110349
H	-0.7108127585	-1.783582492	 2.4022845242	 0.110576
H	-0.3798101347	-2.5305043515	 0.8325337144	 0.109286
174.0069	184.3214	201.7075	239.3928	262.3043	354.9399	373.1626	433.658	461.6667	682.554	764.3145	875.8891	904.2969	920.669	968.3451	996.4206	1012.3571	1055.9472	1066.0518	1132.2473	1142.3296	1160.1509	1192.4579	1283.4046	1335.9319	1405.2188	1414.0517	1422.8176	1428.7975	1479.3452	1490.7668	1491.3591	1494.2059	1500.9011	1502.8492	1519.9614	3015.5595	3021.9362	3028.3323	3072.6493	3076.1842	3083.0165	3094.7533	3099.5759	3112.7182	3118.6692	3125.6041	3200.3697
CC1CC1(C)C	C[C@H]1CC1(C)C	
InChI=1S/C6H12/c1-5-4-6(5,2)3/h5H,4H2,1-3H3	InChI=1S/C6H12/c1-5-4-6(5,2)3/h5H,4H2,1-3H3/t5-/m0/s1
