16
gdb 4173	3.74758	1.60217	1.24656	1.1709	70.	-0.2176	0.0023	0.22	972.2368	0.12998	-379.833171	-379.825482	-379.824538	-379.865176	28.917	
O	-0.1178931992	 1.3027515754	 0.0676393201	-0.393174
N	 0.0095961257	-0.0943189511	 0.1916504292	-0.25558
C	-1.1067099986	-0.665411341	 0.0260800273	 0.337981
C	-2.5392350151	-0.2777988712	-0.2787183547	-0.259964
N	-2.8835170176	-1.7394807441	-0.3527070449	-0.381314
C	-1.5032252259	-2.0977210284	 0.0486286253	 0.287193
C	-0.736110235	-3.2923781066	-0.4406862637	-0.298076
C	-1.0928118771	-3.1684566254	 1.0228681721	-0.327726
H	 0.7871211674	 1.6021219211	 0.2048581835	 0.307584
H	-3.0283028776	 0.2812044179	 0.5272816838	 0.124741
H	-2.6966464856	 0.2544434842	-1.2219295123	 0.134225
H	-3.5629598959	-1.997867193	 0.3563300105	 0.221221
H	-1.2889339137	-4.0097229508	-1.0375451658	 0.124562
H	 0.2952629863	-3.136168396	-0.7375649767	 0.129807
H	-0.3105774214	-2.9270869578	 1.7344900405	 0.13124
H	-1.8764331468	-3.8142119733	 1.4076402456	 0.117281
102.0827	142.945	158.4117	281.256	297.7364	354.6362	449.3795	503.5598	520.5157	595.0369	758.3564	770.7272	782.5185	872.9207	898.7063	933.8405	969.3234	976.9542	1001.0651	1051.1537	1055.5558	1070.42	1118.5127	1144.8802	1192.3875	1237.781	1305.5479	1331.5825	1372.7758	1430.266	1450.3684	1479.895	1495.8146	1798.1823	3036.3225	3082.7688	3124.6139	3133.6887	3211.601	3230.1159	3511.8586	3818.7383
ON=C1CNC11CC1	ON=C1CNC21CC2	
InChI=1S/C5H8N2O/c8-7-4-3-6-5(4)1-2-5/h6,8H,1-3H2	InChI=1S/C5H8N2O/c8-7-4-3-6-5(4)1-2-5/h6,8H,1-3H2
