17
gdb 3978	4.90959	0.83965	0.81195	0.8255	76.77	-0.2431	0.012	0.255	1454.7174	0.138461	-363.806149	-363.796006	-363.795062	-363.843823	33.775	
C	 0.1364675581	 1.4736303385	 0.1388492486	-0.495713
C	 0.0687550116	 0.0198072763	 0.0916595923	 0.035864
C	 0.0230324646	-1.1824452825	 0.0445447642	 0.082636
C	-0.0532510341	-2.6411562273	-0.0112771248	-0.411229
C	-1.4782336928	-3.1629170082	-0.0575706798	 0.376381
C	-2.4178068355	-2.8328632519	 1.0666805502	-0.478586
N	-1.7574391445	-3.8848760247	-1.073253125	-0.165614
O	-3.0737361845	-4.373010096	-1.0329968684	-0.39806
H	 0.9536257753	 1.8526577846	-0.4848334905	 0.149072
H	-0.79268025	 1.9267439231	-0.2241107266	 0.148757
H	 0.3045463491	 1.8344135221	 1.1596292606	 0.146305
H	 0.4753031755	-3.023622415	-0.8903193467	 0.14491
H	 0.4492215613	-3.0645500231	 0.8712221052	 0.132593
H	-3.4499520814	-2.8118204672	 0.7146335251	 0.15176
H	-2.352927479	-3.5958945918	 1.8524242351	 0.13827
H	-2.1565892316	-1.8690944018	 1.5093870451	 0.13683
H	-3.137991792	-4.8407286253	-1.8721381148	 0.305824
20.5646	31.7028	48.5222	85.742	202.6045	242.214	307.3508	323.4067	351.4536	383.1922	394.4264	451.531	526.1647	659.0575	772.7929	818.3681	907.5854	980.3445	1043.4515	1052.2707	1053.961	1058.0042	1162.7068	1212.7373	1265.6661	1324.965	1396.6725	1399.7882	1415.5163	1457.0208	1478.4327	1479.1134	1479.3523	1486.7023	1736.4697	2373.2962	2999.1991	3026.9482	3036.7939	3076.5495	3087.2313	3087.959	3106.8066	3150.8008	3821.9143
CC#CCC(C)=NO	CC#CCC(=NO)C	
InChI=1S/C6H9NO/c1-3-4-5-6(2)7-8/h8H,5H2,1-2H3	InChI=1S/C6H9NO/c1-3-4-5-6(2)7-8/h8H,5H2,1-2H3
