14
gdb 3252	6.12748	2.3641	2.13336	1.1681	57.27	-0.244	0.0748	0.3189	638.4985	0.113999	-324.497671	-324.491922	-324.490978	-324.527013	22.367	
C	-0.047248217	 1.5082138584	-0.0557752703	-0.30065
N	 1.2097462796	 0.7341902065	 0.0843253643	-0.366721
C	-0.0682370916	 0.0355442963	 0.006275453	 0.352518
C	-0.5296169192	-0.9631009541	 1.0984454682	-0.325129
C	-0.9159650257	-1.9193742764	-0.0455452205	 0.038672
O	-1.8709821097	-1.2367747915	-0.866677556	-0.23927
C	-0.4780976666	-0.9568955624	-1.0712871409	-0.078781
H	-0.3156352911	 2.0923142047	 0.820081268	 0.124516
H	-0.268334964	 1.9869170218	-1.0064777922	 0.116332
H	 1.6945174798	 0.6902687806	-0.8099361072	 0.231232
H	 0.3166855478	-1.3109573908	 1.6956616687	 0.121669
H	-1.3538162363	-0.658631717	 1.7472729781	 0.114246
H	-0.9303300793	-3.0025123215	-0.0582418767	 0.108334
H	-0.0755986269	-1.0986713546	-2.0689981467	 0.103032
147.6337	282.9636	327.5497	410.8125	494.6873	592.8512	782.3313	824.1064	843.4151	860.3314	892.2406	919.6415	937.6305	968.8218	980.5846	1030.4865	1042.5924	1068.9009	1120.7465	1154.6666	1210.4834	1224.9451	1245.6849	1259.1604	1286.9044	1373.2333	1423.2245	1467.3742	1515.904	3068.9874	3107.5916	3130.2475	3171.1243	3193.0704	3195.6952	3483.0162
C1NC11CC2OC12	C1N[C@]21C[C@H]1O[C@@H]21	
InChI=1S/C5H7NO/c1-3-4(7-3)5(1)2-6-5/h3-4,6H,1-2H2	InChI=1S/C5H7NO/c1-3-4(7-3)5(1)2-6-5/h3-4,6H,1-2H2/t3-,4-,5+/m1/s1
