12
gdb 353	6.71474	2.47373	1.84838	1.0401	47.28	-0.2515	-0.0944	0.1571	641.1289	0.093575	-306.392828	-306.385878	-306.384934	-306.424157	22.634	
C	 0.0987521455	 1.4499294925	-0.1625586127	-0.384053
C	 0.3638417624	-0.0361046946	 0.060031346	-0.282849
C	 0.5224289156	-0.4066763423	 1.5142633621	 0.292455
O	 0.4537278203	 0.3669604075	 2.4415971565	-0.274656
C	 0.792262047	-1.8849735734	 1.8348681771	 0.089484
O	 0.8812946385	-2.7440244714	 0.9979698891	-0.215908
H	 0.9176961081	 2.0574122034	 0.2315875851	 0.133709
H	-0.0090294382	 1.6654183491	-1.2286465099	 0.118416
H	-0.8149499244	 1.7656844581	 0.3478359985	 0.133725
H	-0.4373101861	-0.6640741523	-0.3527333484	 0.14158
H	 1.2663236647	-0.3769798244	-0.4652540145	 0.141578
H	 0.8962912065	-2.0743580023	 2.9245352811	 0.10652
51.9423	129.6423	181.4115	187.9721	288.931	459.2294	505.8504	646.0832	751.7728	756.6448	960.9675	998.4744	1083.9592	1106.2064	1176.372	1264.912	1363.9856	1380.3703	1415.4607	1437.5251	1493.1438	1497.4027	1804.3076	1824.6889	2921.4582	3030.5735	3052.2328	3052.6047	3124.7316	3125.766
CCC(=O)C=O	CCC(=O)C=O	
InChI=1S/C4H6O2/c1-2-4(6)3-5/h3H,2H2,1H3	InChI=1S/C4H6O2/c1-2-4(6)3-5/h3H,2H2,1H3
