15
gdb 4384	3.62614	1.93507	1.27173	4.4436	72.35	-0.2108	-0.034	0.1768	918.3309	0.121013	-362.746621	-362.739691	-362.738747	-362.777708	26.341	
C	-0.0157926289	 1.5207139825	 0.0505201151	-0.492955
C	-0.0032863095	 0.0251651396	-0.0636726626	 0.416666
C	-0.0363856822	-0.662788587	-1.2420807064	-0.249869
C	-0.019431743	-2.0856310858	-1.2071373141	-0.036339
C	 0.02877368	-2.7735822207	-0.0328239075	-0.257639
C	 0.0653275639	-2.0857731454	 1.2426201388	 0.422856
O	 0.1091611134	-2.5843888968	 2.3554806861	-0.402938
N	 0.0449025763	-0.680225389	 1.1046144943	-0.409368
H	 0.8823599177	 1.8850139179	 0.5628634288	 0.144451
H	-0.0559531029	 1.9814790594	-0.9376207915	 0.144667
H	-0.8831816608	 1.8654868236	 0.6255380703	 0.144413
H	-0.0747661517	-0.1254995259	-2.1799586851	 0.099823
H	-0.0458963301	-2.6303923716	-2.146487377	 0.108699
H	 0.0420404063	-3.8555786875	 0.0058076874	 0.11408
H	 0.0699830815	-0.1885000634	 1.9884321435	 0.253453
128.0103	169.9404	206.2418	299.7531	425.7038	491.2395	523.0111	549.1441	581.029	704.737	737.4141	750.0249	798.9967	863.2459	908.1532	1002.5058	1011.9781	1037.0214	1064.4148	1083.8786	1169.8298	1223.7066	1227.2545	1357.4523	1415.5323	1438.136	1462.7212	1479.5374	1503.7214	1600.2802	1665.6038	1783.2711	3030.687	3082.9419	3140.1885	3171.4131	3217.1711	3221.9895	3590.565
CC1=CC=CC(=O)N1	Cc1cccc(=O)[nH]1	
InChI=1S/C6H7NO/c1-5-3-2-4-6(8)7-5/h2-4H,1H3,(H,7,8)	InChI=1S/C6H7NO/c1-5-3-2-4-6(8)7-5/h2-4H,1H3,(H,7,8)
