19
gdb 1355	4.04236	2.23226	2.08954	1.2861	66.51	-0.2594	0.068	0.3274	754.8611	0.172177	-310.94266	-310.935106	-310.934161	-310.974251	29.035	
C	-0.2727275402	 1.5264294827	 0.0188551747	-0.450175
C	 0.0865572567	 0.0431735762	-0.0466431781	 0.405547
O	-1.1053483895	-0.7391345835	-0.2301407788	-0.47325
C	 1.1110900348	-0.31366928	-1.1436540914	-0.23229
C	 1.60285606	-1.7060169504	-0.7278104011	-0.194645
C	 1.7626188318	-1.5872840069	 0.8044065551	-0.202052
C	 0.7355770723	-0.5068718345	 1.2465899127	-0.214526
H	 0.6134430126	 2.1444274871	 0.1956840095	 0.111395
H	-0.7281421724	 1.8602888241	-0.9217379594	 0.099934
H	-0.990959362	 1.7096902763	 0.8237362015	 0.121812
H	-1.4948660497	-0.4825892536	-1.0733437813	 0.270772
H	 0.6701807912	-0.2780023439	-2.1465297679	 0.077853
H	 1.9381560245	 0.4079559176	-1.1242894219	 0.090292
H	 0.830741694	-2.442745338	-0.9679065927	 0.107883
H	 2.5249009626	-2.0093772007	-1.2311355692	 0.086068
H	 1.6067469434	-2.5433878025	 1.3105173938	 0.097768
H	 2.779191273	-1.2628179838	 1.0512282719	 0.094293
H	 1.225328627	 0.3005519962	 1.798164962	 0.091251
H	-0.0512004498	-0.9098290325	 1.8883809806	 0.11207
43.4023	208.7885	248.0307	296.2798	303.5939	371.7423	408.0279	448.8734	574.9955	603.4077	758.0783	788.4744	846.9023	892.0594	911.5387	915.7	945.5154	984.0804	1029.7471	1044.8621	1062.0632	1116.289	1169.4534	1203.5976	1229.8769	1246.7488	1290.0303	1299.6488	1328.442	1345.9745	1349.9746	1386.1235	1405.5446	1477.3767	1481.0356	1486.2126	1491.9713	1495.0471	1511.0578	3019.9018	3024.983	3042.9873	3053.9524	3063.0794	3069.3328	3085.7174	3088.7328	3104.0738	3110.3541	3116.1935	3797.276
CC1(O)CCCC1	CC1(O)CCCC1	
InChI=1S/C6H12O/c1-6(7)4-2-3-5-6/h7H,2-5H2,1H3	InChI=1S/C6H12O/c1-6(7)4-2-3-5-6/h7H,2-5H2,1H3
