16
gdb 4760	4.47434	1.53023	1.15699	3.3022	70.72	-0.1817	0.0364	0.2181	1027.9647	0.129684	-379.9483	-379.939758	-379.938814	-379.981937	29.726	
C	-0.0788452741	 1.4262605233	 0.0717226156	-0.31664
N	-0.0024492116	-0.0234233395	 0.028678374	-0.384721
C	-1.0846180139	-0.673737378	 0.0290622726	 0.50516
N	-1.230773917	-2.0463816888	-0.0080092248	-0.369951
C	-2.5871843378	-2.3669554481	-0.0725340275	-0.190712
C	-3.2728936887	-1.2190336653	-0.0115577208	 0.337756
C	-4.7144359694	-0.8815155434	 0.0053213345	-0.489345
O	-2.3711534489	-0.1604396941	 0.0651217598	-0.25416
H	 0.9033652882	 1.8414535566	-0.1706591383	 0.1129
H	-0.8098520263	 1.8411775888	-0.6368994143	 0.108358
H	-0.3544352878	 1.7936084671	 1.0710576133	 0.110371
H	-0.4542140435	-2.6573955701	-0.1826514906	 0.270168
H	-2.9381213809	-3.383016164	-0.1268348075	 0.143934
H	-4.9929653849	-0.3582697622	 0.9276127276	 0.141187
H	-4.9809615683	-0.2277041072	-0.8332605239	 0.140936
H	-5.3116080951	-1.7937105651	-0.0660070898	 0.134761
41.9238	107.1549	174.4975	182.3619	203.328	238.0422	323.7621	359.3738	531.8417	594.3691	614.5548	720.293	752.2424	757.1902	904.6297	963.349	1016.4241	1068.3066	1071.7826	1086.8001	1125.1323	1142.8601	1202.0359	1270.7895	1360.2396	1408.6546	1422.2697	1448.4392	1466.5743	1491.9634	1494.6553	1501.6111	1732.0193	1812.9079	2986.0496	3026.9757	3030.259	3075.9819	3091.4473	3125.9	3287.9384	3707.8219
CN=C1NC=C(C)O1	CN=c1[nH]cc(C)o1	
InChI=1S/C5H8N2O/c1-4-3-7-5(6-2)8-4/h3H,1-2H3,(H,6,7)	InChI=1S/C5H8N2O/c1-4-3-7-5(6-2)8-4/h3H,1-2H3,(H,6,7)
