18
gdb 1662	4.70524	1.55728	1.52862	3.3594	65.47	-0.24	0.0387	0.2787	927.9197	0.158634	-327.02168	-327.012595	-327.011651	-327.056105	31.157	
C	 0.2522208044	 1.5008994629	 0.1249781236	-0.332656
N	 0.3340075871	 0.0552344568	 0.056236226	-0.317198
C	 0.2332324621	-0.6336024846	-1.1181835389	 0.425833
O	 0.064919465	-0.0862574983	-2.1954754396	-0.391926
C	 0.3507858002	-2.1562370396	-0.9997226026	-0.078144
C	-0.9316355725	-2.8055933338	-1.5420368844	-0.377413
C	 1.5881124796	-2.6260266457	-1.7812044411	-0.377342
H	 0.108086456	 1.8630995358	-0.8936332041	 0.172059
H	-0.5919831816	 1.8258385121	 0.7436706614	 0.123507
H	 1.1719334573	 1.9352665456	 0.5330193827	 0.123447
H	 0.4710771095	-0.463618256	 0.9070406687	 0.243461
H	 0.4713582178	-2.4343660386	 0.0557305205	 0.059201
H	-0.8492512712	-3.8967633087	-1.5230570245	 0.108659
H	-1.8073863857	-2.5200172623	-0.9504160135	 0.111962
H	-1.1010965467	-2.4836701753	-2.5729043758	 0.142862
H	 2.5097467707	-2.2091655919	-1.3624136958	 0.111774
H	 1.6670461827	-3.7173207475	-1.7581786212	 0.109447
H	 1.5130909653	-2.301783101	-2.8226057114	 0.142467
22.2031	83.9036	134.7759	213.3349	219.9734	259.2024	263.9167	304.5576	348.7748	476.3292	480.462	651.8255	770.8298	842.1265	904.4445	930.7889	974.2206	1058.1851	1104.5968	1116.8582	1155.4187	1171.9258	1201.2609	1225.9149	1334.12	1378.9837	1390.7447	1411.8028	1436.4305	1484.4442	1491.4334	1492.5202	1499.8784	1500.5703	1514.3498	1557.5447	1773.2527	3010.7457	3025.6656	3035.7013	3039.0716	3076.6006	3102.4555	3105.0578	3122.0197	3126.7813	3152.7982	3653.5273
CNC(=O)C(C)C	CNC(=O)C(C)C	
InChI=1S/C5H11NO/c1-4(2)5(7)6-3/h4H,1-3H3,(H,6,7)	InChI=1S/C5H11NO/c1-4(2)5(7)6-3/h4H,1-3H3,(H,6,7)
