14
gdb 567	9.2142	2.40798	2.08586	2.1966	49.83	-0.247	0.0697	0.3167	615.1353	0.119168	-307.528446	-307.522006	-307.521062	-307.558945	21.718	
C	 0.148094217	 1.3952616309	 0.0314887713	-0.241138
O	-0.2723936047	 0.0706678973	-0.2148709766	-0.235389
C	 0.5047765722	-0.5866611684	-1.17407538	 0.095992
C	 1.8540177307	-1.2037225838	-0.7235984309	-0.093506
O	 1.4176793609	-2.5188721326	-1.1244810458	-0.272583
C	 0.0825899776	-2.0453887726	-1.4008632855	-0.097938
H	 1.1699666255	 1.4349347197	 0.4379903638	 0.110195
H	 0.1170349158	 2.0064282991	-0.8839810483	 0.108071
H	-0.5379925249	 1.8218951381	 0.7664907473	 0.132442
H	 0.5823356454	 0.0131844394	-2.0923231566	 0.07414
H	 2.7590562143	-0.8917332677	-1.2572909534	 0.101211
H	 2.0194829118	-1.1316880178	 0.3599354932	 0.102055
H	-0.6474980268	-2.3886616298	-0.6572484639	 0.111687
H	-0.2545278148	-2.3211970718	-2.4058749447	 0.10476
77.0304	110.6618	196.1581	264.2378	430.5561	446.2781	718.4059	870.2461	885.0784	975.1075	1024.7826	1043.1157	1061.1814	1128.6716	1156.6357	1166.9813	1179.3526	1184.9624	1249.8648	1279.9893	1303.3392	1349.4139	1410.427	1483.5376	1489.978	1498.4105	1508.1839	1526.5717	2975.7917	2997.4277	3006.3412	3024.0248	3025.2216	3064.0053	3075.9555	3120.5827
COC1COC1	COC1COC1	
InChI=1S/C4H8O2/c1-5-4-2-6-3-4/h4H,2-3H2,1H3	InChI=1S/C4H8O2/c1-5-4-2-6-3-4/h4H,2-3H2,1H3
