8
gdb 166	10.07849	9.91557	4.99818	4.2954	35.66	-0.2641	-0.0023	0.2618	266.8979	0.059084	-242.180146	-242.176561	-242.175617	-242.206312	12.248	
N	 0.0182739952	 1.3062968461	 0.0092909354	-0.143669
C	 1.2902771006	 1.7678511133	-0.0003663889	-0.076444
C	 2.0478313593	 0.6228996592	-0.014533446	-0.049485
N	 1.2126159855	-0.45465475	-0.0121499923	-0.179422
N	-0.0206913478	-0.0399538567	 0.002783092	-0.112192
H	-0.8458134205	 1.8241362515	 0.0205633403	 0.284825
H	 1.5325328382	 2.8168209459	 0.0031402487	 0.148425
H	 3.1194237895	 0.5101089307	-0.0259224092	 0.12796
580.6933	664.838	733.3591	781.2962	865.1255	954.6705	977.0989	1046.5778	1108.8583	1135.8059	1182.3477	1291.8931	1378.7018	1460.2715	1543.8805	3273.5377	3295.6678	3660.3007
N1C=CN=N1	[nH]1ccnn1	
InChI=1S/C2H3N3/c1-2-4-5-3-1/h1-2H,(H,3,4,5)	InChI=1S/C2H3N3/c1-2-4-5-3-1/h1-2H,(H,3,4,5)
