14
gdb 3113	6.05924	2.17619	1.88376	1.6551	64.85	-0.2335	0.0191	0.2526	696.3935	0.113408	-287.358011	-287.351719	-287.350774	-287.387818	24.239	
C	 0.0816836386	-1.1909679296	 0.0204697659	-0.401553
C	 0.0311473233	 0.0110879362	-0.005506298	 0.215169
C	-0.0749353025	 1.4315237836	-0.0154010683	 0.169759
C	 0.2789481921	 2.2736417669	-1.1858746123	-0.262591
N	 1.1373133576	 2.3905429415	-0.0020486245	-0.158133
C	 0.3688173044	 3.2594159642	 0.9599252269	-0.150057
C	-0.8188674589	 2.2683151689	 1.0329933594	-0.306341
H	 0.1381012137	-2.251092346	 0.0380960329	 0.191992
H	 0.7668731255	 1.7765184387	-2.0178182787	 0.132255
H	-0.368930698	 3.1054695792	-1.4605287421	 0.110672
H	 0.9211199757	 3.3548317692	 1.8959220388	 0.118136
H	 0.1614620609	 4.2587853481	 0.5633314091	 0.10739
H	-1.8128470197	 2.6220406773	 0.7455877592	 0.107273
H	-0.8857614327	 1.7629962117	 1.9970030417	 0.126029
157.4764	168.2652	284.6	443.0465	494.7213	531.488	583.1718	599.0483	658.3796	739.0283	774.2248	791.8591	871.5799	936.4313	974.4821	1004.753	1081.0606	1105.1738	1131.8009	1192.682	1219.606	1229.1707	1260.2055	1310.9863	1351.361	1487.7429	1491.4712	1514.2442	2232.4423	3049.2054	3064.1372	3092.533	3113.7808	3134.8058	3201.8903	3503.4876
C#CC12CN1CC2	C#C[C@]12CN1CC2	
InChI=1S/C6H7N/c1-2-6-3-4-7(6)5-6/h1H,3-5H2	InChI=1S/C6H7N/c1-2-6-3-4-7(6)5-6/h1H,3-5H2/t6-,7?/m0/s1
