15
gdb 1331	5.05514	2.00627	1.73641	3.3635	58.98	-0.2568	-0.0411	0.2157	759.8078	0.121962	-345.650323	-345.642644	-345.641699	-345.681761	27.299	
C	 0.1186441709	 1.5051297883	 0.0253662812	-0.465649
C	 0.0032407695	-0.0007357459	 0.0816821214	 0.397542
C	-1.2335749927	-0.5957947809	-0.5576911846	-0.448771
O	 1.2105835297	-0.7168688979	-0.1609495111	-0.260476
C	 0.6805570627	-0.7920616759	 1.1584344517	-0.096082
C	 1.4464176246	-0.1500623763	 2.2695860524	 0.142981
O	 2.3171478987	 0.6721012962	 2.1356840489	-0.250018
H	 1.0430220537	 1.8444759798	 0.4924265481	 0.165315
H	 0.1164270331	 1.8294696529	-1.0208658733	 0.128805
H	-0.7353657149	 1.9774361996	 0.5220570578	 0.120026
H	-1.2894653003	-0.2983372173	-1.6104449135	 0.133271
H	-1.2141360652	-1.6870039349	-0.5107100922	 0.130431
H	-2.140106995	-0.2359795691	-0.060376585	 0.126625
H	 0.2331372851	-1.7513752789	 1.426480954	 0.096926
H	 1.1267046003	-0.4969368397	 3.2788352041	 0.079073
122.0127	165.4959	193.2362	205.2882	251.7565	318.046	362.2902	413.8893	470.3403	699.4364	750.5406	806.7919	903.0563	944.8862	961.9772	976.4679	1022.9705	1092.8361	1117.9013	1157.4216	1264.7725	1328.3319	1408.5287	1414.9455	1424.6244	1431.4482	1475.1482	1483.399	1500.8366	1509.4099	1824.29	2871.5097	3036.5332	3042.3936	3093.5082	3098.635	3104.3943	3128.164	3157.7505
CC1(C)OC1C=O	CC1(C)O[C@H]1C=O	
InChI=1S/C5H8O2/c1-5(2)4(3-6)7-5/h3-4H,1-2H3	InChI=1S/C5H8O2/c1-5(2)4(3-6)7-5/h3-4H,1-2H3/t4-/m0/s1
