11
gdb 855	7.3681	2.20598	1.7008	2.3447	48.16	-0.195	0.0349	0.2299	668.3308	0.079813	-376.600944	-376.594888	-376.593944	-376.63045	22.672	
N	 0.0312135607	 1.3783468702	 0.1641666762	-0.595195
C	-0.036403603	-0.0025899973	 0.0526643751	 0.283122
C	-1.1026244003	-0.8403278879	 0.0024059809	-0.140639
O	-0.5883568332	-2.1449442746	-0.0280362326	-0.20392
C	 0.7376909933	-1.9621598889	 0.0029106486	 0.485306
O	 1.5088300189	-3.0475491878	-0.0221747554	-0.402066
N	 1.1478663841	-0.7393642477	 0.0498072145	-0.379207
H	 0.9140524348	 1.7369313047	-0.1735321859	 0.257333
H	-0.7491031952	 1.8698110232	-0.2474883127	 0.248201
H	-2.1718887231	-0.7449576407	-0.0054023665	 0.130163
H	 0.9370095131	-3.8240105631	-0.0556578923	 0.316903
217.9941	261.1522	330.0956	350.1266	365.9182	507.2132	566.6708	626.2476	653.234	716.6273	756.9762	780.0744	989.4602	1028.4893	1074.4992	1127.0896	1218.0458	1265.8283	1383.4645	1450.1722	1629.2369	1684.7236	1701.202	3315.9983	3558.4444	3658.6273	3816.1979
NC1=COC(O)=N1	Nc1coc(O)n1	
InChI=1S/C3H4N2O2/c4-2-1-7-3(6)5-2/h1H,4H2,(H,5,6)	InChI=1S/C3H4N2O2/c4-2-1-7-3(6)5-2/h1H,4H2,(H,5,6)
