16
gdb 3034	10.10145	1.08555	1.05366	4.2133	65.34	-0.2929	0.0386	0.3316	1090.2489	0.137117	-288.648179	-288.640754	-288.639809	-288.680231	26.378	
N	-0.0482860186	-1.1386900652	 0.0018470918	-0.305733
C	-0.0122896634	 0.0137096157	 0.0812748812	 0.254565
C	 0.0598592091	 1.4698132958	 0.1742216384	-0.330869
C	 1.4335238951	 2.0279822196	-0.2585517821	-0.205541
C	 1.4855415493	 3.5354489213	-0.1500718333	 0.02655
C	 1.7961896745	 4.1925691225	 1.1736706752	-0.258288
C	 2.80288002	 4.2380640153	 0.0503231412	-0.278001
H	-0.7344785819	 1.8975145619	-0.4486594362	 0.150212
H	-0.1566547587	 1.7678287536	 1.2062445074	 0.154582
H	 2.2130922739	 1.5821089573	 0.3692971542	 0.117631
H	 1.640870694	 1.7100214307	-1.2866668775	 0.122336
H	 0.7635112365	 4.053583253	-0.7772626216	 0.086779
H	 1.2726542584	 5.1051096002	 1.4355336319	 0.116776
H	 2.0154101073	 3.548939742	 2.0199220723	 0.114238
H	 3.6935265642	 3.6254529653	 0.1439239847	 0.117129
H	 2.9652950801	 5.181192231	-0.4590046473	 0.117636
71.1198	102.9907	126.5683	241.7972	345.3065	398.0758	419.5705	538.5081	760.0469	777.8862	823.7725	836.0898	903.9168	949.6781	966.9157	1027.0014	1042.0737	1060.2288	1081.7753	1138.3202	1149.7632	1198.3397	1228.4512	1239.7478	1284.3419	1318.5811	1366.2128	1419.2625	1466.6922	1470.3167	1491.9626	1507.6726	2361.5825	3035.8614	3045.9617	3069.1294	3090.3229	3129.6527	3131.6697	3136.2148	3209.3821	3224.4686
N#CCCC1CC1	N#CCCC1CC1	
InChI=1S/C6H9N/c7-5-1-2-6-3-4-6/h6H,1-4H2	InChI=1S/C6H9N/c7-5-1-2-6-3-4-6/h6H,1-4H2
