10
gdb 1365	8.92939	1.44957	1.25662	3.0728	54.62	-0.2896	-0.0944	0.1953	851.5448	0.063906	-322.155306	-322.148109	-322.147165	-322.187003	24.092	
O	-0.1553945206	-0.1027762941	 0.0016261005	-0.234457
C	-0.0527538328	 1.0924779738	 0.0060219741	 0.30247
C	 1.2531539743	 1.8812847894	-0.0012123337	-0.47069
C	 2.4435699647	 1.0523180717	-0.0157066967	 0.303911
C	 3.4308434999	 0.3706773977	-0.027636292	-0.404111
C	-1.2558372866	 1.95450749	 0.0197489603	 0.221703
N	-2.1871511605	 2.6396578758	 0.0302742476	-0.28966
H	 1.2205071727	 2.5556516179	-0.8692319971	 0.179424
H	 1.2354253547	 2.546470372	 0.8743242886	 0.179455
H	 4.3034693942	-0.2350037143	-0.0379889014	 0.211955
56.3463	116.9524	183.5404	268.6081	318.9382	368.0822	487.9807	568.8751	598.8156	642.724	668.9783	832.1336	940.646	972.6103	1071.6899	1216.6371	1343.9739	1427.2166	1817.3181	2255.1522	2338.3178	3012.9249	3039.2358	3503.9957
O=C(CC#C)C#N	O=C(CC#C)C#N	
InChI=1S/C5H3NO/c1-2-3-5(7)4-6/h1H,3H2	InChI=1S/C5H3NO/c1-2-3-5(7)4-6/h1H,3H2
