19
gdb 1088	4.13542	1.63335	1.60648	2.673	67.84	-0.2463	-0.0226	0.2237	893.1598	0.168384	-310.940764	-310.931873	-310.930928	-310.974254	32.047	
C	-0.0162709146	 1.5400754424	 0.0649796512	-0.406972
C	 0.002095452	-0.0004595227	 0.0637199332	 0.250564
C	 0.6379236485	-0.5151816472	 1.367435766	-0.399667
C	-1.4421325742	-0.5213761833	-0.0413456921	-0.399901
C	 0.7955665079	-0.5461407354	-1.1621499475	-0.275113
C	 2.2338043156	-0.0864376465	-1.2248293411	 0.149716
O	 3.1855523534	-0.7844864822	-0.9784892259	-0.245163
H	 0.9825901941	 1.9638001854	 0.2088894432	 0.116412
H	-0.4191346934	 1.935810138	-0.8740335185	 0.110436
H	-0.647834299	 1.9111925306	 0.879091913	 0.116089
H	 0.0783936343	-0.1517627469	 2.2358719706	 0.110726
H	 0.638274773	-1.6096044409	 1.4016861139	 0.117139
H	 1.6749540131	-0.1818649672	 1.4719653302	 0.125229
H	-1.9306948781	-0.161105919	-0.9533605558	 0.110141
H	-1.4688707912	-1.6161633539	-0.0555012323	 0.114024
H	-2.0377844896	-0.1828041545	 0.8134476316	 0.112626
H	 0.7951312888	-1.6406142864	-1.1426280338	 0.115004
H	 0.293490722	-0.2128028394	-2.0808572496	 0.104091
H	 2.3783784876	 0.9777892889	-1.5213267763	 0.074619
35.0923	83.9679	220.4651	246.6125	269.565	275.9268	318.4781	332.8045	387.474	407.168	456.4787	513.0272	714.6168	851.0093	917.2148	933.1961	940.9488	961.9368	982.3266	1006.3402	1076.6542	1091.2893	1188.18	1225.3451	1256.6499	1299.6221	1319.7318	1401.1592	1403.8717	1432.8006	1433.8031	1464.649	1480.5962	1483.5165	1487.0458	1506.566	1509.5319	1516.0782	1825.9649	2866.276	3015.5703	3024.0507	3027.9371	3035.1993	3088.4299	3092.3148	3095.9746	3097.6403	3100.4241	3103.3994	3107.2782
CC(C)(C)CC=O	CC(C)(C)CC=O	
InChI=1S/C6H12O/c1-6(2,3)4-5-7/h5H,4H2,1-3H3	InChI=1S/C6H12O/c1-6(2,3)4-5-7/h5H,4H2,1-3H3
