14
gdb 1489	6.22083	1.48091	1.32427	5.0519	62.56	-0.2582	-0.0392	0.219	906.5553	0.112923	-320.770299	-320.762347	-320.761402	-320.802525	27.74	
C	 0.2544553831	 1.6391133902	-0.0034272653	-0.370717
C	-0.0726848505	 0.1494771757	-0.182275484	-0.164058
N	 0.6584653273	-0.4238498746	-1.3021576016	-0.255921
C	 1.7958691643	-0.9570735746	-1.0929615851	 0.264708
N	 2.4761881572	-1.1378132421	 0.098813177	-0.556367
C	 2.4937127531	-1.5183466498	-2.2389944828	 0.273279
N	 3.0801316308	-1.9663039179	-3.1284493952	-0.318289
H	 1.3067407513	 1.7919536934	 0.2592310976	 0.110501
H	 0.0620079785	 2.181748041	-0.9325166876	 0.141447
H	-0.3616895528	 2.0738975687	 0.7893332034	 0.121101
H	 0.0996570608	-0.3932657582	 0.7611597896	 0.089812
H	-1.1390674396	 0.0457370219	-0.4072162842	 0.119917
H	 2.2385434807	-0.5349054514	 0.8690631694	 0.270452
H	 3.4500122759	-1.3887249223	 0.0418130086	 0.274135
69.6987	113.8304	169.7469	229.7723	309.6235	318.0051	375.3355	413.6981	485.0723	538.7423	597.9308	721.1271	793.5513	845.0531	894.8841	1022.9801	1086.7212	1137.3363	1188.6934	1298.1028	1329.4423	1362.4602	1404.7341	1488.5474	1499.3338	1528.1308	1639.8453	1721.5045	2358.7536	2972.509	3038.2749	3062.9207	3107.4594	3125.6275	3602.4652	3715.356
CCN=C(N)C#N	CCN=C(N)C#N	
InChI=1S/C4H7N3/c1-2-7-4(6)3-5/h2H2,1H3,(H2,6,7)	InChI=1S/C4H7N3/c1-2-7-4(6)3-5/h2H2,1H3,(H2,6,7)
