13
gdb 2564	4.58943	2.2025	1.68158	2.1229	61.3	-0.2564	-0.0315	0.2249	730.4353	0.099518	-307.283509	-307.276421	-307.275476	-307.314436	25.669	
O	-0.3314253679	 0.4692320194	-0.7702005376	-0.265599
C	 0.1585517244	 1.0124263497	 0.1893062789	 0.086995
C	 1.3561587023	 1.9099015589	 0.1112773829	 0.072157
C	 2.3735274788	 1.5497098056	-0.9876632793	-0.278328
C	 1.4859282514	 2.7161142985	-1.1947309344	-0.278323
C	 1.8174847904	 2.479609024	 1.3430142243	 0.210576
C	 2.1746677183	 2.9384833683	 2.3960017361	-0.41092
H	-0.2530435094	 0.8807531113	 1.2110240088	 0.091569
H	 3.414189574	 1.7166702284	-0.7389854522	 0.138851
H	 2.1474346852	 0.6384421105	-1.5292042438	 0.148832
H	 0.652156355	 2.6034141892	-1.8780436696	 0.148834
H	 1.894315802	 3.7139495158	-1.0935456691	 0.138853
H	 2.4981164856	 3.3490816503	 3.3203039751	 0.196503
111.9072	148.3361	204.1956	254.858	302.3479	508.1907	528.1199	541.9796	584.3484	662.4563	725.9937	785.5564	798.1583	927.5896	969.6116	1014.2691	1052.8491	1072.5591	1106.0022	1210.7288	1266.0421	1293.7932	1420.7915	1449.1304	1480.2089	1808.5658	2237.2765	2923.6933	3147.9184	3148.449	3240.552	3254.7623	3502.2839
O=CC1(CC1)C#C	O=CC1(CC1)C#C	
InChI=1S/C6H6O/c1-2-6(5-7)3-4-6/h1,5H,3-4H2	InChI=1S/C6H6O/c1-2-6(5-7)3-4-6/h1,5H,3-4H2
