13
gdb 88	6.57648	5.31603	3.98453	1.3822	45.85	-0.2494	0.0776	0.327	401.4888	0.113237	-232.33341	-232.327734	-232.32679	-232.36147	21.17	
C	-0.0371405158	 1.5321592003	 0.0133230995	-0.443933
C	 0.0134433485	 0.021170195	 0.0192200525	 0.431376
O	-1.1747610411	-0.5973528431	-0.409312596	-0.462197
C	 1.307447983	-0.6990210626	-0.2738964978	-0.315977
C	 0.7084474854	-0.7137350438	 1.1222631768	-0.28669
H	 0.8902686083	 1.9624027946	 0.4027613524	 0.115571
H	-0.1784615063	 1.915612623	-1.0051852237	 0.105869
H	-0.8701123164	 1.8895520142	 0.6273095332	 0.125638
H	-1.283522647	-0.4022539112	-1.346906409	 0.277677
H	 1.2397381299	-1.6164211506	-0.8478377397	 0.112327
H	 2.2054399256	-0.1152381975	-0.4474447411	 0.107457
H	 1.1953915927	-0.1388983426	 1.9024028418	 0.110257
H	 0.2473543934	-1.6367024057	 1.4537848011	 0.122623
233.2171	295.6798	329.8721	343.3526	408.9855	453.8377	700.8851	775.391	855.154	921.8956	928.8476	966.668	1032.0479	1052.7151	1074.1976	1105.1285	1188.5648	1268.9575	1301.8437	1385.0125	1415.9024	1452.6838	1484.5132	1489.7758	1513.578	3021.6963	3085.6151	3111.7841	3129.9869	3138.5961	3216.2196	3232.2131	3790.5831
CC1(O)CC1	CC1(O)CC1	
InChI=1S/C4H8O/c1-4(5)2-3-4/h5H,2-3H2,1H3	InChI=1S/C4H8O/c1-4(5)2-3-4/h5H,2-3H2,1H3
