19
gdb 2928	5.87579	1.74573	1.43298	0.1643	72.04	-0.2334	0.0315	0.2649	894.832	0.172794	-273.804251	-273.79695	-273.796006	-273.835617	27.533	
C	 0.028901962	 1.5502187522	-0.0101934601	-0.382776
C	-0.0049862606	 0.0196184253	 0.0429666407	-0.187294
C	-1.4155338493	-0.5719885147	-0.0241822613	 0.061235
C	-2.1883007034	-0.2910617767	-1.3451948411	-0.258592
C	-3.0019533313	-1.5467085231	-1.5508102428	-0.062355
C	-2.609306924	-2.5339762895	-0.7481215732	-0.061393
C	-1.4612833404	-2.1174317639	 0.1389737679	-0.273949
H	 1.0539962178	 1.9275497629	 0.0591443462	 0.109904
H	-0.4006695661	 1.9289972342	-0.9435731964	 0.117669
H	-0.5426329559	 1.9865018137	 0.8169634007	 0.112288
H	 0.5934334324	-0.3913550026	-0.781986867	 0.091809
H	 0.4804291128	-0.3205340155	 0.9671915471	 0.091878
H	-2.0063900724	-0.1404216272	 0.7945983543	 0.071034
H	-2.8044279961	 0.6134008107	-1.2870368552	 0.099846
H	-1.4991871896	-0.1356287244	-2.1900453232	 0.099237
H	-3.7835101961	-1.6207557678	-2.2994800337	 0.086829
H	-3.021142364	-3.5375019968	-0.7412047891	 0.087177
H	-0.5227698105	-2.5835007075	-0.1989176722	 0.099048
H	-1.5906058951	-2.4201701394	 1.1847561183	 0.098405
88.4981	117.1684	203.4454	246.7971	392.0292	395.1718	415.1436	589.245	714.7826	774.1168	785.8508	826.7792	920.1205	941.4818	949.2256	975.6513	976.6956	986.8306	1033.1359	1071.9697	1119.4794	1133.664	1143.7613	1159.1698	1227.0322	1290.1394	1292.3857	1308.0081	1332.5176	1348.1632	1379.7953	1387.9316	1412.7511	1482.5527	1486.1715	1493.9745	1500.8401	1508.0017	1689.8951	2986.1619	2989.3878	3004.9243	3013.9248	3030.4209	3041.165	3047.6116	3055.9011	3096.3551	3102.1728	3176.8208	3202.7982
CCC1CC=CC1	CC[C@H]1CC=CC1	
InChI=1S/C7H12/c1-2-7-5-3-4-6-7/h3-4,7H,2,5-6H2,1H3	InChI=1S/C7H12/c1-2-7-5-3-4-6-7/h3-4,7H,2,5-6H2,1H3
