11
gdb 3767	7.89348	2.24216	1.76569	1.5153	48.72	-0.2587	-0.0235	0.2352	659.5525	0.080042	-372.742383	-372.736405	-372.735461	-372.772261	20.874	
C	-0.0524979603	 1.3995133419	 0.02727863	-0.314632
N	 0.000965145	-0.0472156942	 0.0505968759	 0.163832
N	-0.0507698309	-0.7793647408	-1.0453691763	-0.125775
N	 0.0231435711	-2.0327506679	-0.6532190578	-0.302443
C	 0.1174441256	-1.9840343925	 0.6935140569	 0.483539
O	 0.2122733439	-3.0625717065	 1.4716037303	-0.396247
N	 0.1072315338	-0.7511780882	 1.1815322005	-0.32605
H	 0.8600602192	 1.8104079797	 0.4647111761	 0.162706
H	-0.1420996288	 1.702174062	-1.0152372571	 0.172245
H	-0.9159546365	 1.7465207623	 0.5990030643	 0.162784
H	 0.1988541679	-3.8330386259	 0.8895265672	 0.32004
116.2886	186.3095	309.4041	373.0261	414.1497	487.9159	659.6671	687.2604	774.3081	814.1405	1036.7206	1058.2595	1112.2495	1152.2363	1200.8678	1266.3729	1334.5198	1421.1515	1449.6916	1474.5174	1478.4018	1514.9489	1632.2667	3064.075	3136.4797	3177.2202	3801.7427
CN1N=NC(O)=N1	Cn1nnc(O)n1	
InChI=1S/C2H4N4O/c1-6-4-2(7)3-5-6/h1H3,(H,4,7)	InChI=1S/C2H4N4O/c1-6-4-2(7)3-5-6/h1H3,(H,4,7)
