14
gdb 3568	5.4178	3.0125	2.81987	0.4225	55.58	-0.2328	0.05	0.2828	550.4755	0.115246	-324.485746	-324.480631	-324.479687	-324.514313	20.555	
C	 0.0946438587	 1.4750278581	 0.0309163572	-0.247852
C	 1.3210993124	 0.6673207663	-0.0425078509	-0.035958
C	 1.6585503461	 0.0400078533	 1.3209977152	 0.101509
O	 1.3160911407	 0.8312572702	 2.4846278659	-0.297434
C	 0.0264710893	 0.1674979721	 2.5988516566	-0.104392
C	 0.2769499107	-0.6131191901	 1.3009566816	-0.018117
N	-0.062118826	 0.0077649667	-0.0463970574	-0.157806
H	-0.1318682157	 2.0182465706	 0.9417713498	 0.136927
H	-0.2356272504	 1.9610090589	-0.8818032877	 0.125035
H	 1.9640954257	 0.6340831452	-0.9165708062	 0.095978
H	 2.6134008596	-0.4797535016	 1.416877896	 0.086044
H	-0.011948644	-0.4691327228	 3.4917653136	 0.108676
H	-0.8137316063	 0.8705888557	 2.6223248676	 0.111847
H	 0.0911841595	-1.6850549426	 1.2822143687	 0.095544
229.3246	341.4641	418.6562	566.1386	686.5206	716.661	723.7313	853.3166	874.5344	899.7146	917.3755	950.1157	984.9242	1007.0901	1050.9187	1055.75	1078.1565	1106.8554	1145.1542	1160.1964	1201.9853	1229.1823	1236.5878	1292.8387	1314.0547	1347.3346	1357.8035	1496.5318	1518.3302	3018.1605	3066.6921	3095.9647	3131.9332	3134.3365	3160.2675	3218.3442
C1C2C3OCC3N12	C1[C@H]2[C@H]3OC[C@H]3N12	
InChI=1S/C5H7NO/c1-3-5-4(2-7-5)6(1)3/h3-5H,1-2H2	InChI=1S/C5H7NO/c1-3-5-4(2-7-5)6(1)3/h3-5H,1-2H2/t3-,4+,5+,6?/m0/s1
