14
gdb 3717	7.05638	1.90454	1.65301	4.0273	58.84	-0.2496	0.0024	0.2519	759.0825	0.115359	-320.764992	-320.758501	-320.757557	-320.79604	23.119	
C	 0.0461127975	 1.5648132371	-0.1863130302	-0.368555
C	-0.0365142999	 0.0588383227	 0.1116572543	-0.284008
C	-1.4272660716	-0.481279536	-0.0090484817	 0.32244
C	-1.9718610945	-1.3413712331	-0.9346180729	-0.176136
N	-3.267820654	-1.4570974279	-0.5569235648	-0.148905
N	-3.5290226534	-0.7200137078	 0.5368253821	-0.114118
N	-2.4177882695	-0.1298571687	 0.8675239941	-0.245848
H	 1.0677739062	 1.9325657405	-0.050901755	 0.110823
H	-0.2606288697	 1.7793226755	-1.2149931563	 0.114423
H	-0.6135120158	 2.1222582496	 0.4839429666	 0.142256
H	 0.6239882364	-0.4949935567	-0.5642747616	 0.100371
H	 0.3265528531	-0.1274729958	 1.1289186411	 0.122408
H	-1.5640571653	-1.8578317747	-1.7871307241	 0.143446
H	-4.0056574395	-2.0028999144	-0.9720207516	 0.281401
44.4244	163.9173	219.5054	341.744	407.4786	567.0568	647.2334	699.9996	745.4544	781.0045	798.2977	966.2382	987.9078	1041.7462	1045.2483	1073.5966	1093.2914	1131.4129	1263.9407	1273.6243	1314.22	1350.3269	1375.3548	1407.5058	1481.0636	1488.0895	1496.3015	1508.7251	1593.2785	3037.9675	3039.9273	3074.6173	3109.2617	3124.6804	3282.3671	3660.1452
CCC1=CNN=N1	CCc1c[nH]nn1	
InChI=1S/C4H7N3/c1-2-4-3-5-7-6-4/h3H,2H2,1H3,(H,5,6,7)	InChI=1S/C4H7N3/c1-2-4-3-5-7-6-4/h3H,2H2,1H3,(H,5,6,7)
