13
gdb 1054	7.52485	2.00997	1.6151	1.6418	54.6	-0.2412	0.0052	0.2464	730.6555	0.104021	-340.659506	-340.653104	-340.652159	-340.690582	22.424	
N	 0.3138212523	 1.2134147826	-0.5417832061	-0.486068
C	-0.1551236248	 0.2647076855	 0.4572668325	-0.274738
C	-1.4882143383	-0.362890583	 0.1568753572	 0.383414
N	-2.2549612135	-0.1629254815	-0.8675413918	-0.313574
C	-3.3545262231	-0.9885334984	-0.6477183358	-0.111176
C	-3.1837870932	-1.6504091718	 0.5174812106	-0.041743
O	-1.9848575448	-1.2586517199	 1.0498701643	-0.174284
H	 0.3509750358	 0.7470695599	-1.4445187824	 0.238844
H	-0.3877673197	 1.9400183946	-0.6584460309	 0.238839
H	 0.5903408442	-0.5315677375	 0.5777789716	 0.135564
H	-0.212662326	 0.7651317444	 1.4322323003	 0.135562
H	-4.1766957236	-1.0393848916	-1.3433586423	 0.124155
H	-3.7507719054	-2.3718989534	 1.0797603628	 0.145204
39.4692	188.4838	205.5338	286.9461	443.1219	627.3789	684.933	707.0739	761.3429	863.0723	911.8192	929.4591	933.7738	969.3458	1100.2235	1129.7119	1146.8057	1165.7788	1186.3286	1213.4543	1347.1638	1389.9744	1403.9043	1472.754	1560.3752	1615.2034	1678.151	3027.6902	3057.4079	3264.7064	3300.7307	3490.7546	3556.9793
NCC1=NC=CO1	NCc1ncco1	
InChI=1S/C4H6N2O/c5-3-4-6-1-2-7-4/h1-2H,3,5H2	InChI=1S/C4H6N2O/c5-3-4-6-1-2-7-4/h1-2H,3,5H2
