14
gdb 598	6.06795	2.83481	2.21906	0.8753	59.69	-0.24	0.0508	0.2907	602.7793	0.118547	-233.255379	-233.248816	-233.247872	-233.285091	24.264	
C	-0.0853257593	 1.5298834339	-0.0671353193	-0.406499
C	 0.01394028	 0.0251856186	 0.0170495148	 0.014719
C	 1.3169952035	-0.6795993419	-0.2200987963	-0.287224
C	 0.725845838	-0.6549145874	 1.1846211236	-0.182363
C	 1.3523171316	 0.1126491318	 2.2199996118	 0.337893
C	 1.8710558923	 0.7507738838	 3.0988481594	-0.47992
H	 0.8154252816	 2.0066504612	 0.3286416892	 0.130547
H	-0.2144710614	 1.8526818577	-1.1058545449	 0.116118
H	-0.9377141598	 1.9028728741	 0.5105103438	 0.121609
H	-0.8727214119	-0.5057599359	-0.3192992665	 0.090628
H	 1.3202747774	-1.6294451806	-0.7430391017	 0.116204
H	 2.197196429	-0.0681311278	-0.3855230258	 0.124779
H	 0.2824238166	-1.5864308169	 1.5246235964	 0.11009
H	 2.3324031922	 1.3107588395	 3.8736249455	 0.193419
145.2851	176.4748	220.5609	329.0434	366.2721	521.6432	566.7969	590.4554	645.2259	758.88	784.2677	857.578	915.0591	947.0887	1025.2413	1068.6557	1099.7778	1129.7007	1145.8081	1200.345	1230.9038	1371.031	1401.989	1425.1527	1483.7995	1492.4681	1502.2186	2233.0334	3034.569	3095.1972	3114.4299	3135.8989	3139.8335	3149.2809	3225.7453	3506.3952
CC1CC1C#C	C[C@H]1C[C@H]1C#C	
InChI=1S/C6H8/c1-3-6-4-5(6)2/h1,5-6H,4H2,2H3	InChI=1S/C6H8/c1-3-6-4-5(6)2/h1,5-6H,4H2,2H3/t5-,6+/m0/s1
