5
gdb 27	67.88408	5.00823	4.66413	2.3112	26.25	-0.3166	-0.11	0.2066	251.0007	0.02654	-206.721858	-206.717875	-206.716931	-206.747625	11.329	
O	-0.0405597774	-0.0379914394	 0.0026651264	-0.183634
C	-0.0176887026	 1.1619325108	 0.0074600778	 0.08224
C	 1.2331553409	 1.9338133573	 0.0004337145	 0.226189
N	 2.1985737832	 2.5705509697	-0.0048332038	-0.269811
H	-0.9262753441	 1.7895919616	 0.017648585	 0.145016
230.4293	318.6843	627.8796	923.6056	1012.2069	1414.3037	1801.4941	2339.2712	2981.6569
O=CC#N	O=CC#N	
InChI=1S/C2HNO/c3-1-2-4/h2H	InChI=1S/C2HNO/c3-1-2-4/h2H
