17
gdb 2178	3.60229	2.86094	1.9743	2.6327	60.09	-0.2374	0.0646	0.302	710.8438	0.148667	-346.86045	-346.853109	-346.852165	-346.891775	27.	
C	 0.0299395781	 1.5673656757	-0.0329388147	-0.395781
C	 0.0498994913	 0.0543994209	 0.1155635454	 0.156067
O	 0.5363792679	-0.5436003802	-1.0941621673	-0.282234
C	 1.4500367295	-1.5958990444	-0.7967656453	-0.050922
C	 1.2779709126	-1.8917745163	 0.6977618589	-0.260719
C	 0.9353993241	-0.499285947	 1.2447984193	 0.095125
O	 2.0899505759	 0.3216410855	 1.3627177312	-0.433472
H	 1.0432964882	 1.951884539	-0.1564640657	 0.138703
H	-0.5659303395	 1.8433894653	-0.9069550058	 0.11899
H	-0.416610007	 2.034196565	 0.8510531283	 0.107251
H	-0.9761577493	-0.3071613337	 0.293471177	 0.064824
H	 1.2225490553	-2.4573619951	-1.4340131044	 0.098606
H	 2.4766937371	-1.26875688	-1.0121638132	 0.098371
H	 0.439356944	-2.5759037094	 0.8672349052	 0.106249
H	 2.1690216412	-2.3244065082	 1.162343029	 0.091235
H	 0.3849189821	-0.537685521	 2.1950689981	 0.063687
H	 2.6777172084	-0.0835964161	 2.007465484	 0.284019
71.9899	167.9468	223.5465	265.3994	272.2414	362.9249	405.1423	517.7594	667.5432	736.9737	809.0418	865.5561	880.0537	914.5383	983.0735	1003.7842	1043.2616	1050.777	1114.573	1146.0787	1164.1804	1208.2476	1216.69	1239.2056	1312.3274	1328.3944	1364.9044	1387.1249	1398.2768	1409.6224	1424.1939	1479.5939	1487.6132	1495.8009	1523.077	2961.9926	3004.7697	3007.6951	3046.108	3047.9202	3063.0601	3097.2555	3115.0438	3147.6892	3824.4458
CC1OCCC1O	C[C@H]1OCC[C@H]1O	
InChI=1S/C5H10O2/c1-4-5(6)2-3-7-4/h4-6H,2-3H2,1H3	InChI=1S/C5H10O2/c1-4-5(6)2-3-7-4/h4-6H,2-3H2,1H3/t4-,5-/m1/s1
