19
gdb 1361	3.16552	2.2371	1.99418	1.2775	67.65	-0.2382	0.0724	0.3106	802.745	0.16932	-310.911364	-310.902599	-310.901655	-310.943551	32.236	
C	-0.1623095992	 1.5367676024	-0.1305338375	-0.41086
C	 0.006565677	 0.0374657069	-0.0039661161	-0.066073
C	 1.3488066583	-0.6178680369	-0.2076536896	 0.04287
O	 2.4228442006	 0.2383469196	-0.4813694101	-0.417199
C	 0.7113417062	-0.6328321088	 1.1711918226	 0.283326
C	 1.3279083104	 0.2144999663	 2.2674002929	-0.46106
C	 0.1367733383	-1.9516448183	 1.6537843701	-0.44951
H	 0.7626907883	 2.0697973877	 0.0935044032	 0.133826
H	-0.4492723384	 1.8017626767	-1.1538911652	 0.11609
H	-0.946564575	 1.9060596362	 0.5394311263	 0.110194
H	-0.8349492751	-0.5285581222	-0.3977896446	 0.076872
H	 1.3774260672	-1.5594133483	-0.7586000571	 0.07459
H	 3.2092259715	-0.1273019038	-0.0630928842	 0.287166
H	 1.8534769163	 1.0836651923	 1.8685505247	 0.126764
H	 0.5640478252	 0.5702754994	 2.9684616882	 0.114989
H	 2.049667451	-0.3742471113	 2.8474863692	 0.105292
H	 0.8969122469	-2.5528581591	 2.1680145064	 0.107933
H	-0.6881259107	-1.7898676075	 2.3585156816	 0.113852
H	-0.2534917989	-2.5483601414	 0.8228864791	 0.110938
138.2056	154.9933	193.7539	207.0801	212.0648	273.1508	281.1303	309.6344	352.2464	458.4881	508.7343	581.5431	690.6156	774.7866	854.2347	960.5595	971.024	981.4446	1008.1667	1054.7329	1081.3976	1128.1869	1153.1587	1173.7783	1186.8918	1262.3737	1297.0617	1332.5426	1372.3822	1403.8541	1414.8092	1422.6911	1463.0497	1483.2709	1488.5175	1493.8802	1499.5056	1508.5649	1518.963	3013.8147	3022.4944	3034.9693	3071.2457	3074.1933	3077.4221	3087.843	3092.115	3120.1292	3129.6697	3142.656	3804.9488
CC1C(O)C1(C)C	C[C@H]1[C@@H](O)C1(C)C	
InChI=1S/C6H12O/c1-4-5(7)6(4,2)3/h4-5,7H,1-3H3	InChI=1S/C6H12O/c1-4-5(7)6(4,2)3/h4-5,7H,1-3H3/t4-,5+/m0/s1
