13
gdb 1876	5.93197	2.23861	1.73449	5.2552	50.06	-0.2898	0.0421	0.3319	700.9639	0.102611	-381.648857	-381.642579	-381.641635	-381.679327	22.184	
C	-0.0886855887	 1.5519574394	 0.0072977649	-0.409893
C	 0.0986684918	 0.0477166862	 0.0251700176	 0.114315
C	 0.8542725461	-0.536489551	-1.1807114043	-0.111214
O	 1.7060929904	-1.5245362945	-0.5997335518	-0.241108
C	 1.7989786178	-1.3155056722	 0.7408435346	 0.499711
O	 2.5296334325	-1.9067127863	 1.4681666147	-0.369517
O	 0.9400742426	-0.3380229643	 1.1264942642	-0.2545
H	 0.8763308047	 2.0586875469	-0.0854915718	 0.136358
H	-0.7192981075	 1.8410656907	-0.8397894848	 0.12965
H	-0.5734911091	 1.891129609	 0.9258665951	 0.145025
H	-0.8662977317	-0.4568855836	 0.1580825376	 0.104501
H	 0.2009854458	-1.015856314	-1.9120084305	 0.134298
H	 1.4696348152	 0.2186552638	-1.6840850254	 0.122374
90.5546	175.4969	225.7884	304.2489	445.3138	541.6717	645.095	722.3077	777.5499	861.1998	917.5575	955.2256	971.3787	1096.2913	1109.3233	1125.0022	1165.8814	1181.3878	1240.5224	1368.2288	1375.8555	1413.2307	1417.9009	1484.1809	1498.101	1523.8343	1929.1688	3029.2658	3038.7527	3045.0214	3115.4246	3118.7715	3131.4961
CC1COC(=O)O1	C[C@H]1COC(=O)O1	
InChI=1S/C4H6O3/c1-3-2-6-4(5)7-3/h3H,2H2,1H3	InChI=1S/C4H6O3/c1-3-2-6-4(5)7-3/h3H,2H2,1H3/t3-/m0/s1
