14
gdb 2278	9.89141	1.33616	1.26059	3.1311	56.58	-0.2589	0.018	0.2769	916.6208	0.113054	-361.677945	-361.670887	-361.669942	-361.711017	23.643	
N	 0.0373861771	 1.3090468363	 0.0667814136	-0.436711
C	 0.0248826111	 0.0504524432	 0.0072762582	 0.11962
O	-1.119375621	-0.624157909	 0.2491388099	-0.182776
C	-1.101227662	-2.0322271054	 0.1750082029	 0.082254
C	-1.7485003844	-2.7729384218	 1.3610086372	-0.095961
O	-2.6099251545	-3.5057877132	 0.4653339486	-0.2687
C	-2.2330565052	-2.6732345657	-0.6509926159	-0.095965
H	 0.9703995087	 1.6584806717	-0.1404544772	 0.232548
H	 0.8744438523	-0.6055330541	-0.2297989582	 0.089238
H	-0.101149489	-2.394305114	-0.0837941658	 0.095287
H	-1.1096434826	-3.4333307357	 1.9569293553	 0.110484
H	-2.3056460463	-2.0970272605	 2.0220477259	 0.120097
H	-3.0143011286	-1.9512339703	-0.9204516602	 0.120099
H	-1.9495943656	-3.2604997013	-1.5308493543	 0.110485
16.5612	92.5088	123.7811	260.3442	366.7026	412.4573	560.8211	783.4643	815.8871	876.2703	899.0303	978.2021	1026.531	1033.0497	1042.9093	1060.7514	1141.1777	1151.023	1164.1988	1196.7064	1258.3567	1292.7733	1301.1717	1350.9508	1405.7166	1436.8278	1500.8944	1528.5323	1748.4005	3016.3361	3017.2134	3027.9475	3053.3455	3077.8837	3083.4918	3522.8686
N=COC1COC1	[NH][CH]OC1COC1	
InChI=1S/C4H7NO2/c5-3-7-4-1-6-2-4/h3-5H,1-2H2	InChI=1S/C4H7NO2/c5-3-7-4-1-6-2-4/h3-5H,1-2H2
