18
gdb 2545	3.09652	2.08544	1.4242	3.7788	65.74	-0.2384	0.0333	0.2717	911.9146	0.159134	-327.010419	-327.001811	-327.000866	-327.044137	29.767	
C	 0.10462095	 1.5245066785	 0.1100849108	-0.371475
C	-0.0509480369	 0.0125648282	-0.0839730258	-0.165056
N	 0.6381511627	-0.5042308277	-1.2572986999	-0.02431
C	 2.0863317427	-0.698754052	-1.2189777039	-0.157611
C	 2.4893081745	-2.0637230579	-0.6531644412	-0.377014
C	-0.0447778019	-0.8557431132	-2.3814937929	 0.14943
O	 0.4527516509	-1.3059164108	-3.3939806996	-0.350363
H	 1.1546521128	 1.8118411181	 0.2198905123	 0.126664
H	-0.3069554078	 2.0685566538	-0.745190163	 0.128408
H	-0.4251701205	 1.8467495406	 1.0121759386	 0.120453
H	 0.3105122107	-0.5198750935	 0.8046483671	 0.112943
H	-1.1124828898	-0.2377368894	-0.1841195287	 0.118633
H	 2.4471903265	-0.6016131662	-2.2452059475	 0.142564
H	 2.528655017	 0.1089513854	-0.6266626291	 0.102944
H	 2.1116449555	-2.2064061052	 0.364577148	 0.114339
H	 2.0954209068	-2.8648629756	-1.283904904	 0.143676
H	 3.5796966398	-2.1545425912	-0.6224819581	 0.118257
H	-1.134620483	-0.6814975018	-2.274008923	 0.067517
42.4332	69.6138	138.4277	216.7054	236.7184	270.5304	328.0914	344.217	416.2404	503.044	643.0268	771.2017	786.5194	826.6088	947.242	1000.5264	1029.4758	1086.26	1099.6423	1123.3363	1124.3994	1248.7223	1284.8484	1338.1102	1382.4314	1401.2254	1408.0848	1413.173	1431.9906	1457.3211	1474.4829	1489.0643	1491.9492	1495.284	1502.7222	1506.4065	1788.6296	2923.9021	3027.0387	3039.7178	3040.1132	3052.5959	3071.3174	3101.038	3111.7985	3116.5527	3118.6158	3130.318
CCN(CC)C=O	CCN(CC)C=O	
InChI=1S/C5H11NO/c1-3-6(4-2)5-7/h5H,3-4H2,1-2H3	InChI=1S/C5H11NO/c1-3-6(4-2)5-7/h5H,3-4H2,1-2H3
