15
gdb 4483	3.65653	1.73903	1.19483	1.8198	64.93	-0.1853	0.0384	0.2237	971.3419	0.117992	-399.828048	-399.819631	-399.818687	-399.860879	30.028	
C	 0.0174200996	 1.5941114357	 0.0271192165	-0.509728
C	 0.0324090501	 0.0979203267	 0.0510898054	 0.152866
C	 0.0099033854	-0.7439854791	-1.014815669	 0.328114
O	-0.0306000868	-0.4803683499	-2.3362423397	-0.431943
O	 0.0328402187	-2.0456286379	-0.65139388	-0.224001
C	 0.0732465142	-2.0614879516	 0.7498579141	 0.283136
N	 0.1040470073	-3.2883818382	 1.4066015258	-0.596556
C	 0.0735764859	-0.7826766122	 1.1943524329	-0.276066
H	 0.9099948476	 2.0180405258	 0.5025177205	 0.1237
H	-0.0173885902	 1.9629259934	-1.0013204383	 0.133303
H	-0.8525456079	 2.0011279234	 0.5561527067	 0.123689
H	-0.0362586546	-1.3209248158	-2.8079033394	 0.304312
H	 0.9244668557	-3.8392557724	 1.1729967069	 0.242016
H	-0.7169991454	-3.8557106988	 1.2191611343	 0.242009
H	 0.1004936604	-0.491370709	 2.2332912534	 0.105148
87.1816	125.4098	182.3282	190.2087	241.8575	266.6705	309.5797	353.5642	517.5846	602.2059	612.6533	654.3528	682.2965	764.1148	815.7043	839.6144	947.6867	995.7673	1066.9427	1112.0991	1182.9095	1185.9149	1212.4695	1275.7188	1336.3847	1413.8197	1443.6902	1487.2865	1501.3484	1645.4177	1688.5213	1731.6728	3022.5733	3067.6809	3114.7328	3253.875	3487.6037	3550.4697	3822.5015
CC1=C(O)OC(N)=C1	Cc1c(O)oc(N)c1	
InChI=1S/C5H7NO2/c1-3-2-4(6)8-5(3)7/h2,7H,6H2,1H3	InChI=1S/C5H7NO2/c1-3-2-4(6)8-5(3)7/h2,7H,6H2,1H3
