19
gdb 1689	3.62415	1.73185	1.46328	2.0779	63.34	-0.2518	0.0657	0.3175	919.7378	0.169416	-348.052027	-348.042805	-348.041861	-348.085398	33.07	
C	-0.1545465647	 1.5272447049	-0.0604688029	-0.417817
C	 0.0319795071	 0.0090219487	-0.003231412	 0.133416
O	 0.7391736067	-0.4675120815	-1.1499060786	-0.438212
C	 0.795262371	-0.4920580596	 1.2364113989	 0.03013
C	 0.7562506349	-2.0246591057	 1.3115310187	-0.415236
C	 2.2423462994	 0.0323360504	 1.2820699558	-0.071173
O	 2.926260383	-0.3393882132	 2.472744388	-0.428086
H	 0.8021732056	 2.0454682546	-0.1663468997	 0.130306
H	-0.7795386727	 1.8018722971	-0.918449059	 0.103837
H	-0.6543402749	 1.8958583966	 0.8412063751	 0.119186
H	-0.9697085891	-0.4530502191	 0.0279013761	 0.060977
H	 0.2717419041	-0.1672940659	-1.9352132728	 0.281861
H	 0.2758554955	-0.0906291642	 2.1166787381	 0.07505
H	 1.2542523468	-2.4691717876	 0.4444537178	 0.130322
H	 1.2410507299	-2.3861951591	 2.2235689669	 0.104071
H	-0.2753994118	-2.3912659944	 1.3275486191	 0.110569
H	 2.7828448827	-0.3016603931	 0.3864449843	 0.105558
H	 2.2482770523	 1.1260728893	 1.2786840009	 0.102041
H	 3.1454145942	-1.2729718684	 2.4075175852	 0.283198
71.7671	93.6569	209.4129	217.5418	232.2797	253.3489	278.8105	312.4165	326.1916	358.1496	457.8923	494.9739	609.2281	781.7235	876.4465	909.5694	940.4223	1015.1338	1020.4492	1061.4751	1073.1739	1111.8043	1149.5053	1176.0852	1209.4166	1261.2867	1336.8317	1349.8542	1383.8677	1388.9544	1402.5258	1406.4623	1422.3415	1426.3009	1490.9623	1500.431	1503.1933	1504.0908	1510.9526	2946.0614	3016.7494	3027.7088	3030.9719	3035.6794	3088.0619	3094.1227	3098.4833	3114.0465	3121.8531	3824.5313	3838.0281
CC(O)C(C)CO	C[C@@H](O)[C@@H](C)CO	
InChI=1S/C5H12O2/c1-4(3-6)5(2)7/h4-7H,3H2,1-2H3	InChI=1S/C5H12O2/c1-4(3-6)5(2)7/h4-7H,3H2,1-2H3/t4-,5+/m0/s1
