15
gdb 134	18.74523	1.96959	1.86471	1.3815	49.63	-0.2615	0.0813	0.3428	669.0122	0.136722	-233.549368	-233.542485	-233.54154	-233.579515	23.274	
C	-0.0116471151	 1.5438344143	 0.0104946627	-0.376736
C	-0.0151394312	 0.0126651287	 0.0022787509	-0.166417
C	-1.4273876626	-0.5799115674	 0.0125842424	-0.144782
C	-1.4363742979	-2.1022854414	 0.0044568452	-0.071215
O	-2.7889082303	-2.5359440978	 0.0150215963	-0.42232
H	 1.0080185543	 1.9414249556	 0.0028885712	 0.110143
H	-0.5329011495	 1.9446484939	-0.8658006338	 0.115128
H	-0.5160118888	 1.9351310244	 0.9008621113	 0.115127
H	 0.5266248633	-0.3489474301	-0.8819239612	 0.094456
H	 0.5433884162	-0.3583958679	 0.8720184311	 0.094455
H	-1.9748018176	-0.2340225566	 0.89834248	 0.102586
H	-1.9915995394	-0.2245455343	-0.8587650083	 0.102587
H	-0.9067160905	-2.4721687844	-0.8893732559	 0.081468
H	-0.8897948359	-2.4817374845	 0.8839732072	 0.081469
H	-2.7960854849	-3.4973740126	 0.010008121	 0.284051
114.4712	115.5702	182.5394	245.067	268.8029	392.4403	436.8436	745.9049	814.5013	905.1929	954.6232	1002.0269	1059.9495	1073.1381	1118.8216	1191.2429	1247.689	1248.7786	1314.5254	1316.497	1325.3661	1392.1776	1412.4713	1463.3336	1488.7753	1497.0703	1499.1815	1511.0463	1529.9081	2955.1538	2979.3735	3012.3719	3027.5779	3031.8968	3038.0159	3072.0221	3097.9113	3102.0165	3829.8196
CCCCO	CCCCO	
InChI=1S/C4H10O/c1-2-3-4-5/h5H,2-4H2,1H3	InChI=1S/C4H10O/c1-2-3-4-5/h5H,2-4H2,1H3
