21
gdb 2364	3.86368	1.85617	1.46254	0.115	74.63	-0.2631	0.0867	0.3498	940.6991	0.193625	-274.984614	-274.975884	-274.97494	-275.017256	32.44	
C	-1.7685944212	 0.7732366551	-0.6070220955	-0.381824
C	-1.3886777093	-0.5365099698	-1.3142482524	 0.02294
C	-2.234696117	-0.7464240017	-2.5790798498	-0.386144
C	 0.0951254652	-0.5557219227	-1.6425946747	 0.037413
C	 1.1319787035	-0.9013697077	-0.5998015997	-0.311584
C	 0.9134318115	-1.8222778469	-1.7780206721	-0.002483
C	 0.3414752188	-3.2105727623	-1.5839900798	-0.406785
H	-1.1875408792	 0.9113473836	 0.3100711283	 0.113041
H	-1.5762856163	 1.6364610375	-1.2555689651	 0.10878
H	-2.8314327234	 0.7878570206	-0.3428110264	 0.105326
H	-1.6028091577	-1.3608388246	-0.6218016339	 0.066862
H	-2.0528998722	 0.0549504076	-3.3053488606	 0.109366
H	-1.9944833218	-1.6962433778	-3.0663249532	 0.114483
H	-3.3049479504	-0.744956531	-2.3462664638	 0.106205
H	 0.3796929213	 0.2402934864	-2.3298901042	 0.071914
H	 2.0443574083	-0.3172719391	-0.543195221	 0.104442
H	 0.767952417	-1.243166773	 0.3655981569	 0.103792
H	 1.6835896282	-1.7792754154	-2.5447152758	 0.078285
H	 1.1325632196	-3.9185433238	-1.3121167917	 0.114502
H	-0.4058871534	-3.2387699639	-0.7859494213	 0.11652
H	-0.1344354312	-3.5831831313	-2.4982721843	 0.11495
72.2315	144.0197	188.3422	218.641	225.2232	249.9785	331.2994	349.2218	364.6576	467.7003	537.3731	751.8854	782.4722	854.8329	882.105	916.5191	924.9588	950.3315	970.0037	1031.2565	1032.3819	1070.5169	1112.5274	1138.8728	1152.1741	1185.2272	1201.0827	1211.578	1251.6576	1314.1749	1343.9979	1393.1329	1396.3581	1413.7542	1420.6632	1432.9646	1485.6791	1490.3684	1492.4678	1492.9911	1501.3305	1504.9657	1511.31	3018.0024	3022.6224	3027.5303	3028.4445	3082.8539	3086.0332	3092.3707	3102.33	3102.7678	3105.2214	3107.9554	3118.13	3132.4085	3201.4873
CC(C)C1CC1C	CC(C)[C@H]1C[C@H]1C	
InChI=1S/C7H14/c1-5(2)7-4-6(7)3/h5-7H,4H2,1-3H3	InChI=1S/C7H14/c1-5(2)7-4-6(7)3/h5-7H,4H2,1-3H3/t6-,7-/m1/s1
