14
gdb 3964	5.1426	1.57018	1.2029	4.0801	72.24	-0.1707	0.0003	0.1711	930.9477	0.109378	-378.713196	-378.706283	-378.705338	-378.744036	26.577	
O	-0.1002960467	 1.3598999368	 0.1346899644	-0.413559
N	 0.059559912	-0.0492478262	 0.0868667032	-0.279512
C	-1.0906615722	-0.6312335811	-0.0513671996	 0.358948
C	-2.3904805926	 0.0230913508	-0.1485547277	-0.217827
C	-3.5167544503	-0.7061383962	-0.2910879082	 0.019365
N	-3.4883943938	-2.079369233	-0.3501226079	-0.33607
C	-2.2844987095	-2.7496659235	-0.2629746693	 0.009313
C	-1.1226891945	-2.0827814728	-0.1197835586	-0.181399
H	 0.809694704	 1.6536287952	 0.2365519644	 0.298019
H	-2.442627411	 1.1004028938	-0.1051638681	 0.122276
H	-4.5001455195	-0.257511359	-0.366704914	 0.125917
H	-4.3433853297	-2.5950580771	-0.4565592622	 0.261728
H	-2.3438571057	-3.8292130548	-0.3173223969	 0.12515
H	-0.1876854105	-2.624167533	-0.0530445195	 0.107651
131.0054	246.7953	255.2521	329.0752	351.1359	444.7783	448.9723	495.6684	606.143	640.7119	711.3773	801.1649	820.6921	826.6986	949.622	953.8919	960.025	1000.5067	1017.7525	1093.5359	1210.2989	1249.696	1284.9725	1357.2278	1422.3917	1463.7015	1513.3391	1644.283	1645.1153	1722.9302	3203.4975	3207.814	3225.5574	3254.9438	3684.5779	3836.3744
ON=C1C=CNC=C1	ON=c1cc[nH]cc1	
InChI=1S/C5H6N2O/c8-7-5-1-3-6-4-2-5/h1-4,8H,(H,6,7)	InChI=1S/C5H6N2O/c8-7-5-1-3-6-4-2-5/h1-4,8H,(H,6,7)
