12
gdb 2599	3.21799	2.7825	1.76856	4.3201	50.98	-0.2923	-0.0035	0.2888	699.1987	0.0891	-360.488733	-360.481789	-360.480845	-360.519919	24.175	
O	 0.1086248757	 1.3285143229	 0.2531782264	-0.399993
C	 0.0270550919	 0.0064430045	-0.2233462486	-0.126299
C	-1.3896872495	-0.5335121687	-0.1395495269	 0.203316
C	-1.6555597659	-1.9313414036	 0.2531270956	-0.20118
O	-1.8152912355	-0.8712122668	 1.191012006	-0.25093
C	-2.3847019041	 0.1675929148	-0.9335830684	 0.275579
N	-3.1585407176	 0.718448475	-1.5910718794	-0.321488
H	-0.1714088688	 1.3253168647	 1.1757955706	 0.300392
H	 0.3580314654	 0.0277817337	-1.2662087747	 0.135812
H	 0.680712154	-0.6810089842	 0.3334725754	 0.105504
H	-2.5751965132	-2.408701396	-0.0769994556	 0.146103
H	-0.8090555325	-2.5933204961	 0.4273231195	 0.133184
77.9786	157.018	211.457	263.7012	344.9447	420.2297	451.4578	576.1969	598.0657	714.3023	833.3547	910.0096	967.992	987.075	1092.6019	1130.9771	1173.184	1200.1628	1270.9312	1344.1058	1406.2317	1422.9976	1485.7708	1520.5209	2363.4504	3001.7155	3091.8576	3096.6925	3193.549	3801.8536
OCC1(CO1)C#N	OC[C@]1(CO1)C#N	
InChI=1S/C4H5NO2/c5-1-4(2-6)3-7-4/h6H,2-3H2	InChI=1S/C4H5NO2/c5-1-4(2-6)3-7-4/h6H,2-3H2/t4-/m0/s1
