10
gdb 896	6.9758	2.31012	1.73541	3.114	44.36	-0.2031	0.0458	0.2489	638.5325	0.066802	-396.498209	-396.491977	-396.491032	-396.528328	21.918	
O	 0.0641187055	 1.3418956126	 0.0078969461	-0.416913
C	-0.0660440902	 0.0108544322	 0.0012148246	 0.412442
C	-1.1446559615	-0.779704155	 0.0034654496	-0.228498
N	-0.6294994962	-2.0966696581	-0.0068043567	-0.36458
C	 0.733715632	-2.090933203	-0.014843609	 0.493017
O	 1.5341734978	-2.9836232756	-0.0250092033	-0.394299
O	 1.0860627002	-0.7287751861	-0.0097980445	-0.24994
H	 1.0061558874	 1.5498726654	 0.0009101072	 0.318053
H	-2.1936406079	-0.5521606633	 0.0109892673	 0.151966
H	-1.159199727	-2.9494369491	-0.0085903912	 0.278752
124.1351	163.3165	256.1862	347.6655	421.4964	559.6227	619.1997	646.0346	667.6907	754.0451	772.1357	909.5243	992.0634	1061.9296	1134.2138	1219.5082	1326.925	1393.6313	1416.8155	1783.3642	1915.2249	3316.005	3704.7866	3817.0101
OC1=CNC(=O)O1	Oc1c[nH]c(=O)o1	
InChI=1S/C3H3NO3/c5-2-1-4-3(6)7-2/h1,5H,(H,4,6)	InChI=1S/C3H3NO3/c5-2-1-4-3(6)7-2/h1,5H,(H,4,6)
