16
gdb 1473	7.20734	1.27962	1.16323	4.9708	61.52	-0.2866	0.0292	0.3159	1009.8534	0.135337	-325.796704	-325.788371	-325.787427	-325.829447	29.062	
C	 0.0406964704	 1.5550677617	-0.0403342008	-0.385188
C	-0.0078838169	 0.0265451863	 0.0135096888	-0.193781
C	-1.4397637655	-0.5222765212	 0.0172514154	 0.143657
O	-2.1822245474	-0.1057114178	-1.1143955222	-0.414712
C	-1.4385639536	-2.06391305	 0.1500139664	-0.370022
C	-2.782980422	-2.6330898667	 0.1896979132	 0.271389
N	-3.843627834	-3.088735865	 0.2328167061	-0.30305
H	 1.0722356945	 1.9138094628	-0.0965156558	 0.116433
H	-0.5042047721	 1.92842289	-0.9109656325	 0.13227
H	-0.4192771352	 1.9936106449	 0.8515684419	 0.121972
H	 0.5272775687	-0.3982141263	-0.8490195179	 0.090744
H	 0.515835257	-0.3375078753	 0.9062250286	 0.103041
H	-1.985019399	-0.1056204619	 0.8721869648	 0.111435
H	-1.7232706018	-0.4062510716	-1.9075793058	 0.282685
H	-0.8931331906	-2.5051899222	-0.6943020571	 0.140871
H	-0.9035129024	-2.3605553977	 1.0592870971	 0.152256
70.9447	110.2403	130.5408	219.6578	256.5077	298.7528	345.8151	397.1732	419.3564	458.6626	585.246	781.5386	853.8657	905.0169	941.0216	997.4758	1022.8709	1076.722	1108.5916	1144.0425	1200.522	1265.0736	1289.8834	1349.3887	1362.4429	1385.8249	1409.7532	1424.7601	1458.8161	1482.2092	1496.0738	1508.5648	2366.5593	2999.863	3029.6611	3042.5328	3046.6227	3057.0644	3080.7253	3109.0432	3126.6859	3789.9133
CCC(O)CC#N	CC[C@@H](O)CC#N	
InChI=1S/C5H9NO/c1-2-5(7)3-4-6/h5,7H,2-3H2,1H3	InChI=1S/C5H9NO/c1-2-5(7)3-4-6/h5,7H,2-3H2,1H3/t5-/m1/s1
