15
gdb 989	3.65038	3.1105	1.71507	1.0697	62.57	-0.2131	0.0299	0.243	727.9662	0.125199	-308.557865	-308.550869	-308.549925	-308.588663	25.392	
C	 0.021689987	 1.520248081	 0.0042242772	-0.503431
C	 0.0062277111	 0.0235745147	 0.0025874849	 0.165367
C	-0.0281443822	-0.8033541268	-1.0753086435	-0.09623
O	-0.0325265381	-2.1085856571	-0.6931264748	-0.148447
C	 0.0001883493	-2.1107969117	 0.6665192155	-0.09623
C	 0.0252878092	-0.8444044445	 1.1589344108	 0.165367
C	 0.0644705442	-0.4244755828	 2.595039405	-0.503431
H	 0.919506487	 1.9145455336	 0.494936323	 0.12747
H	-0.0008489938	 1.9172438801	-1.0144336844	 0.12472
H	-0.8409611759	 1.9326306711	 0.5409690944	 0.127448
H	-0.0519628516	-0.6246647149	-2.1382504678	 0.128879
H	 0.001331252	-3.0817351369	 1.1351558178	 0.128879
H	 0.9579314847	 0.1709037801	 2.8177412584	 0.127473
H	-0.8026065476	 0.1924713244	 2.8593754598	 0.127445
H	 0.0696046446	-1.2918938903	 3.2608749737	 0.12472
131.094	141.6294	219.1233	243.5023	291.3139	393.7072	611.4941	620.103	646.4115	702.5188	738.6459	768.0758	889.2605	1007.0733	1017.173	1054.0357	1075.5032	1086.7989	1179.91	1184.4531	1257.9229	1314.744	1389.606	1416.4082	1425.7734	1478.9671	1486.0784	1487.6716	1503.0821	1587.3347	1660.0816	3023.0996	3024.6003	3071.3457	3071.3958	3108.3306	3109.585	3266.4617	3271.5805
CC1=COC=C1C	Cc1cocc1C	
InChI=1S/C6H8O/c1-5-3-7-4-6(5)2/h3-4H,1-2H3	InChI=1S/C6H8O/c1-5-3-7-4-6(5)2/h3-4H,1-2H3
