13
gdb 3495	7.42493	2.01397	1.90689	1.4869	59.77	-0.244	0.0321	0.2761	676.2356	0.101126	-307.206439	-307.200583	-307.199638	-307.235889	22.694	
C	-0.0831172614	-1.2810762949	-0.1018221093	-0.44681
C	-0.041163829	-0.0804955423	-0.0410671186	 0.297992
C	-0.0008136937	 1.3631170313	 0.0226667486	-0.161957
C	 0.1241799657	 2.121027836	 1.3870097675	 0.051263
C	 1.5861151664	 1.6397863746	 1.5337310284	-0.235424
C	 1.3546596958	 2.1438633956	 0.0905714183	 0.051261
O	 0.6114729403	 3.2979019661	 0.6378823058	-0.306857
H	-0.1201293358	-2.3410982837	-0.155301596	 0.198673
H	-0.7175794846	 1.8399301915	-0.6492312118	 0.112339
H	-0.6442293026	 2.2810120949	 2.1430392968	 0.103992
H	 2.2187618673	 2.2827108657	 2.1455153579	 0.112513
H	 1.7656089952	 0.5745616072	 1.6853293558	 0.119022
H	 2.0665161464	 2.3313196981	-0.7130135735	 0.103993
167.7703	168.8228	415.4102	491.2849	540.4735	575.5552	634.469	651.6729	725.3751	818.4887	880.1388	887.755	904.6989	927.346	1004.9826	1052.6319	1058.9731	1085.3492	1148.0759	1169.7528	1190.0012	1206.5895	1257.1194	1267.638	1348.8949	1482.0446	2232.0996	3082.7793	3096.0747	3121.966	3128.5259	3164.0513	3502.2344
C#CC1C2CC1O2	C#C[C@H]1[C@H]2C[C@@H]1O2	
InChI=1S/C6H6O/c1-2-4-5-3-6(4)7-5/h1,4-6H,3H2	InChI=1S/C6H6O/c1-2-4-5-3-6(4)7-5/h1,4-6H,3H2/t4-,5+,6-
