16
gdb 2712	8.68074	1.10067	1.04667	3.9112	59.76	-0.2485	0.0346	0.283	1108.154	0.136001	-362.92816	-362.919857	-362.918913	-362.961983	27.606	
C	-0.2869591137	 1.3801265689	 0.3319823163	-0.228903
O	-0.031813725	 0.0202146995	 0.0655239649	-0.240951
C	-1.2089572128	-0.7430980317	-0.1130701039	-0.061194
C	-0.7900924538	-2.1896691546	-0.3253379239	-0.166009
N	-0.0248423847	-2.6809410742	 0.8054667416	-0.267864
C	-0.3358991266	-3.8175852519	 1.4794465552	 0.156558
O	-1.2462285941	-4.5714833215	 1.2038060247	-0.326978
H	 0.6783853576	 1.8763885099	 0.4566090892	 0.130095
H	-0.8296312207	 1.861067028	-0.4963391348	 0.109745
H	-0.8778330752	 1.5114024505	 1.2517776765	 0.109223
H	-1.8583943031	-0.6604810332	 0.7737335962	 0.098551
H	-1.7795681962	-0.3829691756	-0.9847750018	 0.093762
H	-1.6646273406	-2.8350681338	-0.4294944223	 0.148373
H	-0.1980801187	-2.2607671696	-1.2466311671	 0.118207
H	 0.7272182141	-2.097667133	 1.1367644331	 0.255215
H	 0.3529699133	-3.9891645576	 2.3305600461	 0.072169
32.48	83.602	115.6878	205.1419	234.2758	255.7956	299.2481	378.5558	546.3527	577.4103	756.7472	855.686	896.555	1031.9591	1040.3898	1077.7232	1118.5795	1160.0993	1185.5321	1209.9669	1227.8428	1258.3343	1290.8774	1385.2886	1420.1566	1429.6277	1480.1028	1485.2377	1486.031	1501.8226	1522.8211	1529.151	1804.2515	2934.5095	2963.4817	2978.6502	2998.1104	3022.9991	3032.8008	3116.7509	3126.1943	3640.6454
COCCNC=O	COCCNC=O	
InChI=1S/C4H9NO2/c1-7-3-2-5-4-6/h4H,2-3H2,1H3,(H,5,6)	InChI=1S/C4H9NO2/c1-7-3-2-5-4-6/h4H,2-3H2,1H3,(H,5,6)
