13
gdb 4893	5.52351	1.39951	1.18115	4.9722	56.08	-0.2156	0.0298	0.2454	962.0904	0.095211	-435.769701	-435.762281	-435.761337	-435.802031	26.049	
C	 0.1173017382	 1.3251040425	 0.1570653333	-0.254128
O	-0.2184285519	 0.2096211804	-0.6798988562	-0.264679
C	-1.2783694808	-0.5074568885	-0.2755267758	 0.349766
C	-1.3587952048	-1.7351924008	 0.2507615344	-0.132718
O	-2.6912461776	-2.0695164289	 0.434599672	-0.206878
C	-3.47857365	-1.0199767562	 0.0068198608	 0.496263
O	-4.6777780432	-1.0184767895	 0.0130920682	-0.396207
N	-2.5953727228	-0.0379644213	-0.3996783854	-0.436067
H	 0.9952133148	 1.7899139956	-0.2927872357	 0.146756
H	-0.7005652022	 2.0538440952	 0.1985318915	 0.126553
H	 0.3511130346	 0.9864406663	 1.1723207306	 0.134827
H	-0.6174406505	-2.4605969636	 0.5306438646	 0.156976
H	-2.8938101936	 0.7755053288	-0.9094102024	 0.279535
59.8325	136.6972	147.1332	226.0163	356.7499	404.3384	436.9114	551.2118	605.6017	663.4383	728.3744	759.1611	769.2635	925.7964	982.8374	1043.3021	1098.3886	1162.6806	1173.3981	1201.6301	1268.7699	1325.4394	1402.7934	1478.1816	1488.2556	1501.377	1735.9841	1900.7141	3021.9762	3090.821	3149.3614	3309.8754	3686.5391
COC1=COC(=O)N1	COc1coc(=O)[nH]1	
InChI=1S/C4H5NO3/c1-7-3-2-8-4(6)5-3/h2H,1H3,(H,5,6)	InChI=1S/C4H5NO3/c1-7-3-2-8-4(6)5-3/h2H,1H3,(H,5,6)
