12
gdb 4315	4.23426	1.91035	1.31669	4.8832	60.77	-0.2316	-0.0423	0.1893	839.1723	0.085375	-414.731149	-414.72449	-414.723546	-414.761903	24.772	
N	 0.0461067956	 1.3555027401	 0.0866717824	-0.560222
C	-0.0326512736	 0.0044310588	 0.0310832371	 0.423601
C	-1.2142939108	-0.6970724692	 0.0165361078	-0.355414
C	-1.2190620194	-2.1192348029	-0.0102965631	 0.432054
O	-2.1245800354	-2.9021466802	-0.0246237068	-0.343983
O	 0.1179610527	-2.6914749874	-0.0242578044	-0.209403
C	 1.1789350092	-1.9028982421	-0.013695408	 0.156319
N	 1.2044018834	-0.6201309482	 0.0127066981	-0.341233
H	 0.9500191004	 1.7746716372	-0.0499042922	 0.272443
H	-0.7724125884	 1.9230226226	-0.0443757526	 0.269919
H	-2.1772996609	-0.2034915574	 0.0288474139	 0.107839
H	 2.1092052974	-2.4662348513	-0.0312843122	 0.148079
157.2006	173.5621	230.5947	357.4352	437.0433	466.699	504.9073	542.8407	583.5691	692.0139	726.1097	763.9659	826.0622	880.879	955.5825	990.5777	1062.8214	1132.0341	1262.7423	1319.5634	1392.557	1462.5401	1593.5394	1642.5737	1686.8681	1877.9026	3172.2707	3213.8625	3618.7601	3748.3996
NC1=CC(=O)OC=N1	Nc1cc(=O)ocn1	
InChI=1S/C4H4N2O2/c5-3-1-4(7)8-2-6-3/h1-2H,5H2	InChI=1S/C4H4N2O2/c5-3-1-4(7)8-2-6-3/h1-2H,5H2
