12
gdb 122	23.89209	2.25168	2.1394	4.0641	46.62	-0.3185	0.0365	0.355	569.5065	0.102603	-211.295163	-211.289209	-211.288265	-211.324151	19.863	
C	-0.003819068	 1.5486938116	 0.0103449101	-0.386527
C	 0.004748359	 0.0193738507	 0.0022048373	-0.164289
C	-1.4241529949	-0.5615987896	 0.0127169813	-0.318916
C	-1.4407647839	-2.0226194708	 0.0047935433	 0.254497
N	-1.4339613062	-3.1782002609	-0.001355567	-0.304457
H	 1.01583841	 1.9437175218	 0.0026827794	 0.126047
H	-0.5233644333	 1.9487733688	-0.8671923066	 0.122042
H	-0.5064610301	 1.9394370601	 0.9018210808	 0.122041
H	 0.5321046517	-0.3528863703	-0.882358695	 0.123921
H	 0.5488563373	-0.3621633398	 0.8725595396	 0.123921
H	-1.9678426628	-0.2126852171	 0.8988152352	 0.150864
H	-1.9846506989	-0.2031535146	-0.8589514385	 0.150856
97.5572	167.5732	246.4189	346.846	400.5438	536.8212	742.4952	872.8999	878.1083	958.6543	1046.9345	1111.0272	1128.495	1257.1626	1300.7099	1323.6786	1380.6816	1416.1804	1467.9128	1491.8559	1500.0505	1508.3549	2362.4478	3033.8088	3035.3534	3051.2548	3066.7158	3085.386	3107.8772	3113.8973
CCCC#N	CCCC#N	
InChI=1S/C4H7N/c1-2-3-4-5/h2-3H2,1H3	InChI=1S/C4H7N/c1-2-3-4-5/h2-3H2,1H3
