14
gdb 2605	3.53337	2.60955	1.78068	2.8753	54.37	-0.2569	-0.038	0.219	713.8518	0.112789	-361.688335	-361.68122	-361.680276	-361.719508	25.455	
O	 0.1366885479	 1.3914646578	 0.3727247602	-0.42117
C	 0.0373688069	 0.0634672108	-0.0953843967	-0.149344
C	-1.3771526939	-0.4804176261	-0.0165097836	 0.202955
C	-1.5917233082	-1.9467766445	 0.1928428345	-0.276745
N	-1.9340807665	-1.0108158139	 1.2534754996	-0.335386
C	-2.3988232917	 0.2818287051	-0.7892274189	 0.147157
O	-2.1418869679	 1.2570367446	-1.4570833103	-0.279605
H	-0.3779016248	 1.928067413	-0.2432839503	 0.300214
H	 0.3927799668	-0.0277535609	-1.1331689257	 0.106273
H	 0.6977003232	-0.5454089477	 0.5329998376	 0.100997
H	-2.4358104903	-2.4487944749	-0.2727336938	 0.129821
H	-0.6931574372	-2.5534960461	 0.2789398685	 0.127994
H	-1.2097515476	-0.9780613506	 1.9675031589	 0.249594
H	-3.4357108466	-0.1034957766	-0.6913762799	 0.097246
103.2684	131.027	209.3611	284.421	327.0854	359.1446	490.7604	531.1315	535.8463	775.9265	827.2127	895.2478	935.0191	967.1113	1011.3702	1047.1476	1080.4942	1095.7921	1139.494	1207.9298	1250.6267	1329.3194	1370.3701	1390.7436	1423.991	1442.8119	1489.0219	1507.9616	1803.4567	2918.1271	2989.8977	3061.7856	3104.0004	3189.5975	3501.1475	3780.9663
OCC1(CN1)C=O	OC[C@]1(CN1)C=O	
InChI=1S/C4H7NO2/c6-2-4(3-7)1-5-4/h2,5,7H,1,3H2	InChI=1S/C4H7NO2/c6-2-4(3-7)1-5-4/h2,5,7H,1,3H2/t4-/m0/s1
