10
gdb 67	8.55908	4.01671	2.97882	3.269	39.28	-0.3051	0.0115	0.3166	424.3395	0.078602	-247.214861	-247.209162	-247.208218	-247.243338	19.252	
C	-0.0099246231	 1.5495190809	 0.0073219962	-0.397442
C	 0.007404854	 0.0172201996	 0.0503126972	 0.011784
O	 0.7208572187	-0.4963047879	 1.158645827	-0.402894
C	-1.3699509508	-0.5235592867	 0.0089443174	 0.247225
N	-2.4508157221	-0.9323313769	 0.0071691167	-0.313726
H	 1.0189231373	 1.9163044701	 0.0272414869	 0.139959
H	-0.5026148964	 1.9096936186	-0.8999795105	 0.142819
H	-0.5480042554	 1.9537761129	 0.8705366377	 0.132079
H	 0.5360284572	-0.3649419486	-0.8297094521	 0.145109
H	 0.2770264307	-0.2064453419	 1.9642177334	 0.295086
192.4071	220.9986	265.8273	323.349	395.1032	571.2151	592.8308	791.3656	924.5918	1047.4692	1092.7003	1132.8281	1295.292	1332.4764	1404.6188	1419.0788	1488.3148	1490.9867	2354.5656	3044.5807	3063.7869	3121.2774	3137.0229	3799.6912
CC(O)C#N	C[C@@H](O)C#N	
InChI=1S/C3H5NO/c1-3(5)2-4/h3,5H,1H3	InChI=1S/C3H5NO/c1-3(5)2-4/h3,5H,1H3/t3-/m1/s1
