9
gdb 14	35.09545	9.3686	8.1497	1.4131	27.87	-0.2619	0.0798	0.3417	193.1659	0.079754	-154.972731	-154.968412	-154.967467	-154.998148	13.546	
C	-0.0086050396	 1.5020382883	-0.0068121748	-0.354778
C	 0.0109931006	-0.0176487687	-0.013770355	-0.043841
O	 0.6808884095	-0.4404180314	-1.1931320987	-0.415734
H	 1.0115333417	 1.896620303	-0.0192015475	 0.125479
H	-0.5315986204	 1.8807610923	-0.8897465868	 0.125474
H	-0.5167457158	 1.876117708	 0.8871073864	 0.11091
H	 0.5237712083	-0.3891229547	 0.8882408183	 0.083978
H	-1.0202754406	-0.4050726108	 0.0169067033	 0.083978
H	 0.6952957263	-1.4017956761	-1.2014849452	 0.284535
239.0786	287.2696	412.9115	818.2764	903.2068	1032.0372	1117.7113	1183.5417	1277.8157	1295.6633	1400.8915	1461.8149	1482.728	1500.8434	1531.008	2964.0033	2987.7512	3043.467	3118.2502	3119.8888	3829.9632
CCO	CCO	
InChI=1S/C2H6O/c1-2-3/h3H,2H2,1H3	InChI=1S/C2H6O/c1-2-3/h3H,2H2,1H3
