16
gdb 2304	5.9552	1.41913	1.25156	1.5456	70.96	-0.219	0.0421	0.2611	988.4085	0.135116	-288.585212	-288.576965	-288.576021	-288.619117	28.223	
C	 0.110966813	 1.5277363704	 0.0378157881	-0.498536
C	 0.0631265935	 0.0728479975	 0.0386797875	 0.036366
C	 0.0282605404	-1.1321944007	 0.0500219256	 0.114802
C	 0.0066445486	-2.5693492645	 0.0092449613	-0.17304
C	-0.4475669901	-3.356230862	 1.205083493	-0.238997
N	-1.2559348567	-3.3365526817	-0.0000808147	-0.079628
C	-2.5084218215	-2.5945886866	 0.0569656352	-0.307824
H	 1.1459634304	 1.8873106222	 0.0317359913	 0.150883
H	-0.389210518	 1.9452792204	-0.8432187649	 0.148888
H	-0.3777546644	 1.9435001392	 0.9259496296	 0.148327
H	 0.7704672348	-3.0141601229	-0.6253091295	 0.110344
H	 0.0346398229	-4.3001632947	 1.4463385127	 0.116975
H	-0.7868820743	-2.7765992304	 2.06221752	 0.113868
H	-2.4622749075	-1.6902101745	 0.6813695332	 0.111112
H	-2.7962227329	-2.2966976004	-0.955817894	 0.125241
H	-3.2835698583	-3.2572777012	 0.4541622356	 0.12122
17.2052	99.9767	125.2232	199.2462	264.7114	298.3793	376.9507	384.3015	503.25	564.5161	706.6955	764.8625	872.7818	972.5816	1028.584	1051.5545	1053.1618	1067.5612	1114.1277	1128.0769	1161.641	1203.9747	1208.1885	1322.0969	1379.0538	1414.3348	1447.6117	1476.2755	1479.0344	1488.6951	1493.8441	1506.7711	2362.5167	2993.6521	3025.7872	3076.2036	3085.4644	3087.8683	3091.7096	3107.9458	3121.9069	3180.719
CC#CC1CN1C	CC#C[C@H]1CN1C	
InChI=1S/C6H9N/c1-3-4-6-5-7(6)2/h6H,5H2,1-2H3	InChI=1S/C6H9N/c1-3-4-6-5-7(6)2/h6H,5H2,1-2H3/t6-,7?/m0/s1
