12
gdb 4532	3.65048	1.84326	1.22862	1.7308	52.31	-0.1776	0.0583	0.2359	881.8921	0.083704	-451.825317	-451.817674	-451.816729	-451.856884	27.855	
O	 0.0740659281	 1.2826561735	 0.1080146962	-0.424017
C	 0.092980562	-0.0590252731	 0.0168148936	 0.443275
N	 0.1657429287	-0.766327561	-1.0827889682	-0.440898
C	 0.1224260933	-2.079654496	-0.6587320144	 0.241677
O	 0.1915240732	-3.1118150306	-1.5344656216	-0.444831
C	 0.0388108106	-2.1566191881	 0.6986387948	 0.214736
O	-0.0744379276	-3.1731108391	 1.5947046425	-0.435007
N	 0.0285077447	-0.8170792972	 1.1309962459	-0.349874
H	 0.1125869956	 1.6158279526	-0.7971007617	 0.313031
H	 0.2395429926	-2.7169664937	-2.4124942704	 0.299591
H	 0.7425882906	-3.6846902075	 1.6005148918	 0.307121
H	-0.0825493918	-0.50017617	 2.0787456414	 0.275195
145.292	203.1503	260.5695	273.9549	297.5831	317.4069	330.652	384.3287	446.9018	559.3095	637.6529	664.0181	672.3522	722.5985	840.9277	1060.6986	1131.704	1163.2959	1201.6977	1280.2688	1294.2302	1367.0667	1465.4401	1574.0208	1623.3758	1740.6527	3679.3673	3776.4448	3808.5892	3818.4738
OC1=NC(O)=C(O)N1	Oc1nc(O)c(O)[nH]1	
InChI=1S/C3H4N2O3/c6-1-2(7)5-3(8)4-1/h6-7H,(H2,4,5,8)	InChI=1S/C3H4N2O3/c6-1-2(7)5-3(8)4-1/h6-7H,(H2,4,5,8)
