16
gdb 3061	10.21097	1.001	0.97355	1.9313	71.59	-0.2284	0.0381	0.2665	1218.5007	0.136611	-288.589622	-288.58162	-288.580676	-288.624359	27.43	
C	 0.0047833918	 1.5493110299	-0.0474516145	-0.36363
C	-0.0222676152	 0.0149161916	 0.0817547004	-0.314541
C	-1.3737794209	-0.5349313919	 0.0609682763	 0.065908
C	-2.5015854687	-0.9619900947	 0.0369117054	 0.073966
C	-3.8374410254	-1.4894675997	 0.0376163157	-0.154138
C	-4.3967899051	-2.1167418315	-1.1977525739	-0.227156
N	-4.0605612349	-2.955860651	-0.0433015534	-0.308273
H	 1.0357366969	 1.9147894359	-0.0263071723	 0.115208
H	-0.4562530359	 1.8683846878	-0.9860018409	 0.128694
H	-0.5440205816	 2.0176904582	 0.7739690959	 0.129638
H	 0.563008777	-0.4308084524	-0.7328792194	 0.128788
H	 0.4806908755	-0.2826509821	 1.0110556419	 0.12989
H	-4.5327586945	-0.9956832036	 0.7120339037	 0.113784
H	-5.4594552804	-2.0248629144	-1.4042253217	 0.122834
H	-3.7569790493	-2.1437604077	-2.0747281405	 0.120913
H	-3.1639981293	-3.4096522843	-0.2026113328	 0.238115
6.1904	100.2711	122.5064	197.4718	226.4908	330.7621	480.667	493.2514	535.4388	691.0997	785.8482	811.0457	860.4248	949.9126	965.1311	1000.2059	1072.1669	1093.6762	1104.3001	1122.0197	1156.3194	1218.5611	1257.2145	1284.7608	1298.9073	1348.4772	1397.8549	1408.4759	1476.2745	1494.1479	1504.2243	1505.9603	2359.2255	3018.2234	3044.9148	3045.2631	3113.162	3118.5352	3124.5575	3134.6753	3203.653	3502.8553
CCC#CC1CN1	CCC#C[C@H]1CN1	
InChI=1S/C6H9N/c1-2-3-4-6-5-7-6/h6-7H,2,5H2,1H3	InChI=1S/C6H9N/c1-2-3-4-6-5-7-6/h6-7H,2,5H2,1H3/t6-/m0/s1
