11
gdb 3842	5.89971	2.98118	1.98045	2.6347	56.69	-0.2281	-0.0808	0.1473	592.686	0.081801	-335.61837	-335.613068	-335.612123	-335.647606	19.553	
N	-0.1067297958	 1.3305962	 0.0083331031	-0.553242
C	 0.0256559409	 0.0647056162	 0.0011155184	 0.439268
N	-1.144249791	-0.7192169634	 0.0037194238	-0.224849
N	-1.2143164106	-2.0398732334	-0.0024851267	-0.124767
C	-0.0755938759	-2.6728498728	-0.0120480607	-0.035266
C	 1.1608692629	-1.9427509747	-0.0153639883	 0.009621
N	 1.2296226765	-0.6510574401	-0.0092756068	-0.286306
H	 0.8164227281	 1.760387236	 0.0053333032	 0.228555
H	-2.026960766	-0.2268323961	 0.0111657437	 0.285771
H	-0.112033688	-3.7546411607	-0.0172534885	 0.132399
H	 2.1018043189	-2.4937719811	-0.0234479213	 0.128816
96.9876	383.3406	435.987	491.9833	581.5774	643.0501	713.9854	760.2484	835.2548	840.2524	853.7582	1000.7338	1012.2642	1018.2659	1074.1099	1198.7832	1296.5745	1394.0096	1412.5388	1440.8752	1566.0945	1656.2105	1732.9595	3127.8976	3217.9256	3516.9597	3603.7184
N=C1NN=CC=N1	[NH]c1[nH]nccn1	
InChI=1S/C3H4N4/c4-3-5-1-2-6-7-3/h1-2H,(H2,4,5,7)	InChI=1S/C3H9N4/c4-3-5-1-2-6-7-3/h3-7H,1-2H2
