14
gdb 1701	4.09888	2.40268	1.98579	4.2051	57.47	-0.2766	0.0086	0.2852	695.0499	0.112959	-324.573162	-324.566166	-324.565222	-324.604197	24.899	
C	-0.2592146702	 1.6417636059	-0.0271715746	-0.434676
C	 0.0418063524	 0.1497041672	-0.0499815993	 0.275119
C	 0.8418664163	-0.411679533	-1.2624216601	-0.318634
C	 1.8636493718	-0.8565071859	-0.1996732347	-0.068499
O	 1.1146615006	-0.2026745278	 0.8537741473	-0.2971
C	-1.1721607693	-0.631896791	 0.2552823355	 0.25938
N	-2.1249292396	-1.2462864134	 0.479981381	-0.334525
H	 0.6517743874	 2.1976208187	-0.2624865035	 0.129408
H	-1.0330708814	 1.8903101203	-0.7596193212	 0.138974
H	-0.6083331155	 1.9417079962	 0.9643918426	 0.149856
H	 0.3541810505	-1.2013656139	-1.832340171	 0.137037
H	 1.1890662504	 0.370942971	-1.9382992779	 0.124523
H	 1.9240560392	-1.9386504336	-0.0396244203	 0.121861
H	 2.8747126574	-0.4470452808	-0.2877679338	 0.117277
81.6871	184.6887	193.9525	233.8448	328.783	385.288	539.279	575.007	632.1343	772.995	863.6218	885.0251	915.0151	977.1152	1003.8024	1019.7858	1131.1965	1161.1228	1200.9213	1207.8549	1258.0725	1263.8959	1349.7796	1405.9608	1477.7123	1484.5401	1493.0119	1530.2679	2351.5153	3037.3709	3046.3538	3083.8761	3093.0888	3125.7273	3132.8674	3156.0458
CC1(CCO1)C#N	C[C@]1(CCO1)C#N	
InChI=1S/C5H7NO/c1-5(4-6)2-3-7-5/h2-3H2,1H3	InChI=1S/C5H7NO/c1-5(4-6)2-3-7-5/h2-3H2,1H3/t5-/m0/s1
