15
gdb 2224	3.60653	2.89174	2.12636	1.1593	56.82	-0.2254	0.0633	0.2887	668.9154	0.124238	-345.601318	-345.59458	-345.593635	-345.631523	25.599	
C	-0.0164027488	 1.5368612348	 0.0042361555	-0.42409
C	 0.0697881674	 0.0304102998	 0.1004818434	-0.05545
C	 1.3328885065	-0.7611206738	-0.1573865217	-0.011224
O	 2.4841702012	-0.0434213118	 0.3063416226	-0.280264
C	 2.0005240232	-0.085674643	 1.6750753544	-0.150041
C	 0.7000408378	-0.7485160545	 1.2254283436	 0.294581
O	-0.0394509603	-1.6524721096	 1.9571202526	-0.446772
H	 0.9545425195	 1.9949691824	 0.2087032367	 0.135283
H	-0.3165684886	 1.8402934325	-1.0040423935	 0.119023
H	-0.7493090191	 1.9426722873	 0.7092857179	 0.119362
H	-0.8024622055	-0.5125330025	-0.2614654496	 0.097833
H	 1.4767405	-1.5071818734	-0.9303703718	 0.105393
H	 2.6311866574	-0.747278303	 2.2839265282	 0.098711
H	 1.9491223255	 0.9051811415	 2.1404671645	 0.110505
H	 0.5388559838	-2.3768198867	 2.2235422071	 0.287151
173.4984	214.99	251.038	286.2378	348.0431	385.1388	468.9948	584.1987	640.435	761.5575	781.2787	909.9139	926.1517	975.8117	992.4313	1006.0749	1050.8768	1073.5607	1121.1494	1131.6469	1147.2458	1209.8474	1263.6316	1286.7384	1345.6263	1353.5631	1411.0555	1480.2809	1493.7268	1507.3225	1519.3072	3011.6674	3037.7112	3068.3131	3097.4971	3117.4803	3134.2411	3182.6096	3783.4428
CC1C2OCC12O	C[C@H]1[C@H]2OC[C@@]12O	
InChI=1S/C5H8O2/c1-3-4-5(3,6)2-7-4/h3-4,6H,2H2,1H3	InChI=1S/C5H8O2/c1-3-4-5(3,6)2-7-4/h3-4,6H,2H2,1H3/t3-,4+,5+/m0/s1
