13
gdb 4602	5.6961	1.60263	1.26049	3.4851	64.59	-0.2474	-0.0814	0.1659	903.1626	0.095789	-398.648158	-398.641403	-398.640459	-398.679205	24.768	
C	-0.0127526206	 1.5255563529	 0.0382777582	-0.469393
C	-0.0263630307	 0.0262969316	 0.00421203	 0.242126
C	-1.1432346523	-0.6987990706	-0.2135665543	 0.014648
O	-1.14698203	-2.0482603094	-0.2426663608	-0.200104
C	 0.0290513463	-2.7628959341	-0.044225049	 0.39267
O	 0.0044704955	-3.9616754175	-0.0737845256	-0.326213
C	 1.2015397175	-1.9093764876	 0.1863169854	-0.114135
N	 1.1833495887	-0.62099375	 0.209998453	-0.246206
H	 0.6638203436	 1.921496283	-0.7261113713	 0.144697
H	-1.0098711295	 1.9381976585	-0.1341385902	 0.126238
H	 0.3491895212	 1.8852087845	 1.0070013277	 0.144694
H	-2.1299213892	-0.2849568787	-0.3836570363	 0.145506
H	 2.1402872595	-2.4347449225	 0.3455307731	 0.145471
98.1679	157.273	300.7534	306.9888	381.5238	434.2829	521.8974	528.6055	620.0514	766.7571	777.9919	799.4545	877.6152	934.0175	948.7893	1026.3829	1069.4481	1125.8016	1234.4044	1267.9988	1335.7362	1397.6615	1419.7371	1472.6427	1491.3291	1583.6685	1681.4928	1844.6767	3039.854	3098.8511	3125.2743	3166.0815	3211.3437
CC1=COC(=O)C=N1	Cc1coc(=O)cn1	
InChI=1S/C5H5NO2/c1-4-3-8-5(7)2-6-4/h2-3H,1H3	InChI=1S/C5H5NO2/c1-4-3-8-5(7)2-6-4/h2-3H,1H3
