14
gdb 3757	4.00095	3.37567	1.85959	3.2814	59.79	-0.2043	0.0395	0.2438	664.5971	0.115625	-320.774349	-320.767547	-320.766603	-320.80501	24.464	
C	-0.043937468	 1.4118702035	-0.0134351864	-0.334006
N	-0.0092994377	-0.0308579518	 0.0221008312	 0.015937
N	 0.0363836487	-0.747230664	-1.1337265132	-0.28181
C	 0.0512154577	-2.0131327426	-0.7355515831	 0.007242
C	 0.0380723225	-2.1354095675	 0.6689351791	-0.30393
C	 0.004667167	-0.8278773905	 1.122407073	 0.371207
N	-0.0956601704	-0.2800845328	 2.4072148477	-0.606422
H	 0.9517339359	 1.8509046691	 0.1286984788	 0.127756
H	-0.4211652272	 1.7114451299	-0.9910424935	 0.160052
H	-0.7109532608	 1.7822677607	 0.7698882942	 0.145983
H	 0.0757688792	-2.8023071464	-1.4733569613	 0.10445
H	 0.0552673744	-3.031217298	 1.2684246131	 0.089234
H	-0.0885891682	-1.0019595323	 3.1155273361	 0.254249
H	 0.6355635369	 0.3905067927	 2.6167538342	 0.250058
94.439	175.0231	213.9191	276.7097	294.4184	455.714	647.0252	660.9782	671.099	741.0028	760.0167	791.8141	881.0526	941.8086	1022.5635	1066.3664	1108.9697	1151.2594	1239.129	1251.4966	1312.7656	1376.8651	1433.1753	1461.3864	1490.4637	1508.4209	1552.7672	1594.334	1657.1268	3021.7198	3096.6419	3159.0948	3237.0933	3264.0834	3521.1997	3621.7154
CN1N=CC=C1N	Cn1nccc1N	
InChI=1S/C4H7N3/c1-7-4(5)2-3-6-7/h2-3H,5H2,1H3	InChI=1S/C4H7N3/c1-7-4(5)2-3-6-7/h2-3H,5H2,1H3
