16
gdb 4147	4.99749	1.58246	1.46314	0.9295	68.	-0.2297	0.0153	0.245	878.3961	0.132615	-379.838071	-379.831577	-379.830633	-379.868585	25.887	
O	-0.1704316095	 1.2951637323	 0.0431481973	-0.398372
N	 0.0133440541	-0.1068018645	 0.0190976279	-0.286769
C	-1.1061251999	-0.6993943803	 0.003510376	 0.456746
C	-2.5470857927	-0.186649679	 0.0060800681	-0.259287
N	-3.3044158384	-1.4764281086	-0.020220074	-0.129046
C	-2.5035658266	-2.2744219997	 0.9953639293	-0.184343
C	-1.326474793	-2.1851494985	-0.0239492331	-0.120662
C	-2.4943668345	-2.2379260228	-1.056314004	-0.184346
H	 0.7371932976	 1.6168784493	 0.0529380031	 0.305353
H	-2.7899306362	 0.391349424	 0.9016441013	 0.131124
H	-2.7819085541	 0.422788491	-0.8705821937	 0.131128
H	-2.3930013877	-1.8039243589	 1.9758299083	 0.112264
H	-2.9195424078	-3.2790103856	 1.0963923235	 0.114875
H	-0.4550719283	-2.8376220792	-0.0316466799	 0.084196
H	-2.909276498	-3.2382127496	-1.1967322177	 0.114876
H	-2.3750869852	-1.7328732999	-2.0183951425	 0.112263
125.9648	211.576	307.7803	402.2676	449.0821	476.5684	567.9369	580.5951	649.9467	803.2859	819.913	830.8158	871.6299	875.5197	959.8854	971.0461	1003.0806	1016.3599	1018.7261	1068.0235	1090.5644	1179.8659	1196.9558	1209.3538	1221.9951	1233.0149	1265.4205	1268.6412	1312.0147	1406.5191	1480.7193	1498.1808	1533.2345	1788.7083	3059.5991	3062.9524	3068.897	3112.6003	3126.0317	3128.1413	3137.4258	3820.4933
ON=C1CN2CC1C2	ON=C1CN2C[C@H]1C2	
InChI=1S/C5H8N2O/c8-6-5-3-7-1-4(5)2-7/h4,8H,1-3H2	InChI=1S/C5H8N2O/c8-6-5-3-7-1-4(5)2-7/h4,8H,1-3H2
