21
gdb 1575	3.43194	1.63212	1.19581	0.9463	71.94	-0.2462	0.0873	0.3335	1080.5854	0.192354	-312.128429	-312.118892	-312.117948	-312.162923	33.462	
C	-0.0505906575	 1.4991021601	-0.0720224089	-0.382289
C	-0.0035076284	-0.0051723174	 0.1434255717	-0.034777
O	-1.3042996696	-0.5216595417	-0.0479931937	-0.255852
C	-1.4150056002	-1.9401158317	 0.0017130736	 0.161192
C	-1.3917001802	-2.4582094504	 1.4429622737	-0.402444
C	-2.7145495107	-2.308116797	-0.7181207189	-0.171102
C	-2.7319665563	-1.8935736189	-2.1908434316	-0.384613
H	 0.9423931309	 1.9368767527	 0.0684425702	 0.111733
H	-0.3945337954	 1.7316495064	-1.0839315714	 0.124071
H	-0.73919644	 1.9658885221	 0.6381277943	 0.12546
H	 0.6985613059	-0.4748493466	-0.5664701592	 0.082787
H	 0.3682409211	-0.2279624106	 1.1562521775	 0.085763
H	-0.5668550045	-2.3814428082	-0.5517977775	 0.057214
H	-2.2284633596	-2.0372278915	 2.0096820797	 0.120751
H	-1.4761249826	-3.5496176241	 1.4603858262	 0.112138
H	-0.4631488464	-2.1903899024	 1.955121836	 0.113948
H	-2.8649507183	-3.3905508657	-0.6270745408	 0.090343
H	-3.5450158186	-1.8287240679	-0.1845882836	 0.101508
H	-3.689181181	-2.1406566253	-2.6599998105	 0.107114
H	-2.5694660399	-0.8172931378	-2.2856016379	 0.13056
H	-1.9433684686	-2.4043565841	-2.7553765389	 0.106494
45.9558	88.9875	115.8578	174.9356	207.4621	240.4021	247.8463	262.8729	346.8139	445.6184	467.9756	494.9164	766.002	818.6144	832.0073	872.8797	950.8925	979.2024	1004.1891	1036.5477	1100.6419	1122.9882	1149.4698	1168.3353	1186.6447	1205.5575	1296.4097	1300.1224	1329.5199	1369.2176	1394.8037	1401.8524	1404.3358	1406.1151	1437.6814	1474.1036	1483.7249	1490.6573	1495.6551	1497.0219	1500.3926	1510.9477	1530.4534	2941.1671	2958.723	2987.418	3026.0027	3034.8113	3038.0749	3043.4178	3064.2129	3098.4476	3108.0684	3112.3799	3117.6051	3120.1354	3126.677
CCOC(C)CC	CCO[C@@H](C)CC	
InChI=1S/C6H14O/c1-4-6(3)7-5-2/h6H,4-5H2,1-3H3	InChI=1S/C6H14O/c1-4-6(3)7-5-2/h6H,4-5H2,1-3H3/t6-/m0/s1
