8
gdb 725	6.64966	6.41692	3.26561	4.38	41.36	-0.2639	-0.0979	0.166	372.8252	0.050401	-296.265627	-296.261303	-296.260359	-296.293176	14.62	
C	-0.0207506341	 1.3854388707	 0.0104673128	 0.04277
N	 1.1165854301	 2.0653968032	 0.0030903716	-0.148924
N	 2.2584600052	 1.378843211	-0.0120962495	-0.047397
N	 2.276276779	 0.0646291228	-0.0197715909	-0.047397
N	 1.1534347526	-0.652755286	-0.012730141	-0.148925
C	-0.0019140152	-0.0040092026	 0.0024060983	 0.04277
H	-0.9396433462	 1.964449434	 0.0227950772	 0.153551
H	-0.9047711714	-0.6078203131	 0.0078978615	 0.153551
238.9896	313.7314	651.4539	723.4143	839.9226	858.9627	884.6172	1026.2899	1036.2626	1079.8755	1125.3924	1151.9926	1327.9307	1377.2611	1549.5051	1578.2086	3171.6342	3187.8842
C1=NN=NN=C1	c1nnnnc1	
InChI=1S/C2H2N4/c1-2-4-6-5-3-1/h1-2H	InChI=1S/C2H2N4/c1-2-4-6-5-3-1/h1-2H
