12
gdb 3693	7.33338	2.15928	1.68567	3.2974	51.95	-0.2205	0.0218	0.2422	694.1501	0.09183	-356.748545	-356.742198	-356.741254	-356.77862	22.808	
C	-0.0147789189	 1.4892250494	 0.0049196436	-0.493954
C	-0.0193308278	 0.0022391143	-0.0150619789	 0.396957
N	-0.105180696	-0.7233438308	-1.0887640131	-0.257627
N	-0.0715921293	-2.0222827483	-0.628508131	-0.294411
C	 0.0358963161	-2.1362098275	 0.740510115	 0.456992
O	 0.0894385001	-3.1204552056	 1.4442849608	-0.420719
N	 0.0675821082	-0.784082948	 1.1122572686	-0.391211
H	 0.9084831702	 1.8790966819	 0.4476372027	 0.142403
H	-0.0951663673	 1.8568411704	-1.0188573967	 0.163204
H	-0.8552223358	 1.8825847504	 0.5874291068	 0.142396
H	-0.1238365186	-2.789154215	-1.2748405679	 0.280818
H	 0.144065269	-0.4830646414	 2.0681055402	 0.275152
143.5727	165.1494	290.5514	297.2408	421.5805	505.3135	509.6757	635.8248	678.9179	757.428	781.0516	991.8981	999.5354	1021.5241	1067.9463	1105.5965	1243.4891	1277.6765	1386.1679	1410.5678	1460.0439	1477.6278	1498.704	1655.774	1858.7347	3036.7779	3089.8754	3150.2531	3688.2035	3702.0122
CC1=NNC(=O)N1	Cc1n[nH]c(=O)[nH]1	
InChI=1S/C3H5N3O/c1-2-4-3(7)6-5-2/h1H3,(H2,4,5,6,7)	InChI=1S/C3H5N3O/c1-2-4-3(7)6-5-2/h1H3,(H2,4,5,6,7)
