17
gdb 1926	4.59129	2.79856	2.42096	1.5838	63.25	-0.2399	0.0895	0.3293	647.4824	0.149831	-309.710255	-309.704117	-309.703173	-309.739703	24.731	
C	-0.0840192662	 1.5066002913	-0.0024360801	-0.494324
C	 0.0352007991	 0.009438226	-0.0162620981	 0.42525
C	 0.7328030071	-0.8011145471	-1.1396364995	-0.263772
C	-0.3036132579	-1.8219594933	-0.6304455302	 0.083834
C	 0.2019762293	-2.1903505766	 0.7801124216	-0.215063
C	 0.4729374991	-0.7340574918	 1.2714916894	-0.244609
O	-1.2059124127	-0.7081718805	-0.3501997036	-0.330981
H	 0.8889764696	 1.963867267	 0.2058542818	 0.120242
H	-0.4448688247	 1.8798763916	-0.9647614946	 0.125526
H	-0.7835801101	 1.8282324925	 0.7763297443	 0.127681
H	 0.47939389	-0.4178909105	-2.1290868169	 0.104561
H	 1.79954759	-1.0279439036	-1.0559673178	 0.087907
H	-0.7387278178	-2.5997390797	-1.2577606947	 0.074566
H	-0.5717839188	-2.6958832775	 1.3614962296	 0.106022
H	 1.0949168124	-2.8214670623	 0.7630131274	 0.095446
H	 1.5180892824	-0.5469805431	 1.5339730969	 0.09454
H	-0.1549557708	-0.4493054525	 2.1190451544	 0.103174
197.2664	248.3111	298.1858	354.7873	434.8197	560.1446	604.0056	710.7095	799.8736	824.6497	838.4717	868.6545	889.3036	922.5914	953.1781	993.9007	996.6057	1019.5339	1072.731	1113.9285	1159.5238	1186.431	1214.9237	1232.3296	1244.7961	1280.021	1299.3043	1312.4781	1353.4784	1415.7427	1477.1321	1481.7113	1482.4942	1494.1394	1506.484	3036.275	3056.6094	3058.5287	3068.4665	3102.4806	3105.5954	3115.9335	3121.1092	3123.7476	3136.8006
CC12CC(CC1)O2	C[C@@]12C[C@@H](CC1)O2	
InChI=1S/C6H10O/c1-6-3-2-5(4-6)7-6/h5H,2-4H2,1H3	InChI=1S/C6H10O/c1-6-3-2-5(4-6)7-6/h5H,2-4H2,1H3/t5-,6+/m1/s1
