17
gdb 2232	4.59327	2.69953	2.15574	0.1828	68.85	-0.223	0.0254	0.2484	683.4703	0.149586	-272.587161	-272.5808	-272.579856	-272.616798	25.428	
C	-0.0268648623	 1.5543700949	 0.0262196556	-0.485067
C	 0.0406680497	 0.0456096946	 0.0038154521	 0.336484
C	-0.8268613737	-0.7850575232	 0.9329090529	-0.315158
C	 0.6730448638	-0.8020744431	 1.1015370862	-0.075745
C	 1.4628074135	-1.9290068772	 0.4371479226	-0.272938
C	 1.1539602042	-1.7498173563	-1.0360504361	-0.079539
C	 0.4065376031	-0.6674537455	-1.2612697874	-0.130681
H	 0.9134693084	 2.0023081128	-0.3147102929	 0.117073
H	-0.8270902069	 1.9265717012	-0.6248174524	 0.115403
H	-0.2276238321	 1.9247324341	 1.0365107074	 0.113718
H	-1.3954009245	-0.253569651	 1.6905181902	 0.102715
H	-1.3223481647	-1.6618305416	 0.527611889	 0.106397
H	 1.0821268547	-0.3304714462	 1.9880883546	 0.079648
H	 2.540162727	-1.8390573356	 0.633220346	 0.104087
H	 1.1673315022	-2.9212458137	 0.8033580787	 0.106607
H	 1.4929762887	-2.4481892316	-1.7931385573	 0.08981
H	 0.0639970989	-0.3295612526	-2.2339691594	 0.087187
200.4786	225.1306	270.4077	327.414	413.6661	484.1601	593.7333	723.8521	749.0548	766.0371	815.4198	868.2012	918.1681	932.9473	956.8985	964.6436	976.7211	1029.4604	1059.0455	1083.1811	1087.7221	1114.8056	1137.9368	1193.345	1263.7885	1276.856	1316.8567	1352.8642	1405.3234	1419.0346	1473.8755	1485.821	1488.6537	1502.0116	1671.2528	3009.7951	3021.4643	3036.214	3079.6977	3097.6065	3115.308	3167.9744	3176.637	3203.2595	3204.0858
CC12CC1CC=C2	C[C@]12C[C@H]1CC=C2	
InChI=1S/C7H10/c1-7-4-2-3-6(7)5-7/h2,4,6H,3,5H2,1H3	InChI=1S/C7H10/c1-7-4-2-3-6(7)5-7/h2,4,6H,3,5H2,1H3/t6-,7+/m1/s1
