14
gdb 1436	8.78603	1.31135	1.16546	5.6727	58.49	-0.2718	-0.0345	0.2373	976.7854	0.111155	-324.614082	-324.60597	-324.605025	-324.648331	26.819	
C	-0.0741746711	 1.5364532088	-0.103952973	-0.380398
C	 0.0290883749	 0.0214883833	 0.0532199043	-0.280591
C	 0.7816979783	-0.4030613253	 1.3039034981	 0.383723
O	 1.2417872134	 0.3740406701	 2.0981530943	-0.259662
C	 0.9171952262	-1.9312665036	 1.4860014586	-0.45692
C	 1.6254651627	-2.3175180368	 2.699177698	 0.28939
N	 2.1833380127	-2.6457917298	 3.6549906466	-0.293308
H	 0.9178961582	 1.9908550327	-0.1605770987	 0.13857
H	-0.6252203523	 1.7903024864	-1.0131847009	 0.117759
H	-0.5887293194	 1.9823028427	 0.7505596112	 0.139162
H	-0.9658186896	-0.4446028451	 0.0862279627	 0.128658
H	 0.5277494004	-0.4369009521	-0.8123229278	 0.127919
H	-0.083689708	-2.3801305867	 1.4851525014	 0.17251
H	 1.4323385735	-2.3471560247	 0.611246565	 0.173187
15.0866	58.4307	129.7577	190.5042	252.0131	360.8971	368.8881	433.7958	464.6949	660.3809	738.4683	827.7917	896.6237	931.337	1006.7778	1041.9948	1090.3277	1122.379	1217.6588	1291.6637	1320.8372	1372.2554	1417.6646	1434.3848	1453.2619	1492.845	1497.7731	1833.6312	2376.0129	3015.6982	3041.6082	3042.3381	3055.9175	3076.0066	3128.8457	3132.7798
CCC(=O)CC#N	CCC(=O)CC#N	
InChI=1S/C5H7NO/c1-2-5(7)3-4-6/h2-3H2,1H3	InChI=1S/C5H7NO/c1-2-5(7)3-4-6/h2-3H2,1H3
