18
gdb 4336	3.58374	1.7601	1.19792	0.2951	82.66	-0.2298	0.0072	0.2371	1026.6316	0.154648	-310.752381	-310.744258	-310.743314	-310.786957	29.394	
C	-0.0191174654	 1.5277262784	 0.0048015465	-0.491882
C	-0.008809547	 0.0181560366	-0.0088748709	 0.333095
C	 0.0188826203	-0.6864007888	-1.2152454422	-0.207252
C	 0.0502716541	-2.0775172563	-1.2189635356	-0.085405
C	 0.0536892744	-2.7833395215	-0.0197776703	-0.207273
C	 0.0264362783	-2.1048493087	 1.2014363329	 0.333092
C	 0.0537987347	-2.8618296084	 2.5073176092	-0.491882
C	-0.0090061639	-0.7084944427	 1.1841457571	-0.281673
H	 0.9974410891	 1.9330366688	-0.0736450489	 0.132271
H	-0.592033362	 1.9316640357	-0.8354533269	 0.124627
H	-0.4531027076	 1.9171123855	 0.930214611	 0.12258
H	 0.0095100845	-0.1419569203	-2.1550250235	 0.085262
H	 0.064035518	-2.6149199055	-2.1620089268	 0.091003
H	 0.0713794806	-3.8692823209	-0.0300819074	 0.085263
H	 1.0813295133	-3.10873827	 2.8023461725	 0.132274
H	-0.3849082441	-2.2753739066	 3.3197026885	 0.122595
H	-0.4953835587	-3.805496322	 2.4344728166	 0.124609
H	-0.0409565487	-0.1705457734	 2.1286873183	 0.078698
14.6838	38.7789	198.5832	220.4659	272.4767	401.4202	444.3633	516.7992	534.2659	540.9004	715.4553	734.084	795.1243	899.3324	901.4801	920.2229	961.7697	998.7352	1013.9928	1032.1354	1060.2953	1063.5493	1122.9596	1182.9099	1197.541	1273.8214	1323.4551	1344.1816	1410.6583	1412.8541	1449.7127	1486.	1488.3176	1488.5226	1506.1266	1525.5303	1629.0915	1648.929	3026.2645	3026.7556	3083.951	3084.1287	3111.9609	3112.0999	3152.4465	3160.0866	3168.5559	3187.0146
CC1=CC=CC(C)=C1	Cc1cccc(C)c1	
InChI=1S/C8H10/c1-7-4-3-5-8(2)6-7/h3-6H,1-2H3	InChI=1S/C8H10/c1-7-4-3-5-8(2)6-7/h3-6H,1-2H3
