13
gdb 2808	3.84119	2.37428	1.62106	0.8669	66.13	-0.2417	0.0296	0.2713	752.2044	0.099647	-270.099401	-270.092307	-270.091363	-270.130219	26.503	
C	-0.1396324274	-1.2135446621	-0.0044116681	-0.457004
C	-0.0640455213	-0.0138095463	 0.0188928271	 0.342571
C	 0.0040553385	 1.4157812995	 0.0330035002	-0.192799
C	 0.4887351635	 2.156285858	 1.2596911633	-0.291723
C	 1.3609899321	 2.1457277203	 0.0239375488	-0.192803
C	 2.5912050399	 1.4145515827	 0.0011394837	 0.342506
C	 3.6335433744	 0.8160236123	-0.0292947246	-0.456962
H	-0.1975532307	-2.2733613652	-0.0228086663	 0.197405
H	-0.7674694328	 1.9141490826	-0.5467156228	 0.121191
H	-0.0083375966	 3.0835460784	 1.5203725488	 0.125679
H	 0.8183475239	 1.5539610408	 2.096845795	 0.143344
H	 1.3643329626	 3.0609371462	-0.5609336862	 0.121189
H	 4.5493538938	 0.2797624627	-0.054280639	 0.197406
99.9658	174.1308	231.7008	236.3705	422.7969	483.2602	549.8983	587.5532	595.8087	645.2748	653.0127	655.3199	764.8421	766.4915	856.8981	930.4457	996.0262	1073.6289	1102.5664	1119.0597	1149.8898	1216.3723	1374.0161	1387.5695	1478.9165	2241.0627	2242.5386	3145.0632	3146.6403	3154.237	3245.6288	3506.0686	3506.7537
C#CC1CC1C#C	C#C[C@H]1C[C@H]1C#C	
InChI=1S/C7H6/c1-3-6-5-7(6)4-2/h1-2,6-7H,5H2	InChI=1S/C7H6/c1-3-6-5-7(6)4-2/h1-2,6-7H,5H2/t6-,7+
