14
gdb 260	8.72739	1.81809	1.54762	1.2601	50.08	-0.2458	-0.0111	0.2348	760.732	0.117054	-307.586014	-307.578343	-307.577399	-307.618405	25.274	
C	-0.0742751996	 1.4904939565	 0.0109889695	-0.472025
C	 0.0647653854	-0.0211533663	 0.0014372145	 0.375721
O	 1.1475554899	-0.563932082	-0.0120633884	-0.294732
C	-1.2293868226	-0.8171456745	 0.0092481908	-0.280596
C	-1.0128493495	-2.3226876929	-0.0005309165	-0.071134
O	-2.2969502806	-2.9315385939	 0.0080651719	-0.426326
H	 0.9129893256	 1.9533755016	 0.0034119153	 0.142463
H	-0.6473400989	 1.8260993434	-0.8606623341	 0.139029
H	-0.6292800816	 1.816518093	 0.8978360024	 0.139047
H	-1.8213347601	-0.5295212079	 0.88833477	 0.12871
H	-1.8372654474	-0.5205396831	-0.8558836834	 0.128755
H	-0.4337537662	-2.6063173671	-0.8905262605	 0.101916
H	-0.417584437	-2.6154765889	 0.8757275288	 0.101886
H	-2.1732123075	-3.8850122179	 0.0025731597	 0.287286
45.0833	97.1158	116.4395	177.0562	272.3668	353.0741	410.2627	481.9052	592.2261	760.3688	845.8688	934.9991	937.7235	1042.4659	1078.9735	1122.1214	1178.7632	1213.0602	1257.5998	1303.2252	1352.5658	1385.475	1447.5655	1462.2982	1472.7077	1476.8994	1522.5119	1804.8758	2998.7314	3026.132	3026.9828	3038.626	3062.12	3097.7057	3153.509	3831.4827
CC(=O)CCO	CC(=O)CCO	
InChI=1S/C4H8O2/c1-4(6)2-3-5/h5H,2-3H2,1H3	InChI=1S/C4H8O2/c1-4(6)2-3-5/h5H,2-3H2,1H3
