13
gdb 2965	7.34234	1.58771	1.45247	4.3374	56.36	-0.2475	-0.0936	0.1539	820.7111	0.100024	-344.454591	-344.447535	-344.446591	-344.486551	24.053	
O	-0.0632816594	 0.005815285	-0.0277032481	-0.203723
C	-0.0039495006	 1.2028244934	-0.0205869674	 0.085939
C	 1.3411792525	 1.9692033383	 0.0344100953	 0.303528
O	 2.3830529271	 1.355170349	 0.073185067	-0.300325
C	 1.2484253551	 3.4470837202	 0.0354935312	-0.134295
C	 2.3136952959	 4.2090138656	 0.822012603	-0.241451
C	 2.3714268906	 4.2136152068	-0.6610726627	-0.24145
H	-0.9168061579	 1.8404447081	-0.0532356663	 0.086664
H	 0.2529925028	 3.8748127083	-0.0019058723	 0.096668
H	 1.9891395676	 5.1031340721	 1.3411117895	 0.127452
H	 3.0271553833	 3.5876253252	 1.3511837148	 0.146768
H	 3.1239936774	 3.5952567492	-1.1369504851	 0.146767
H	 2.0881519055	 5.1109886987	-1.1984042489	 0.127456
53.9112	77.2426	197.3066	251.3493	299.9249	398.2154	593.8288	690.6201	797.2838	816.5459	857.0493	863.3312	890.8136	1012.0221	1052.8458	1083.1061	1100.2897	1110.6924	1124.4845	1211.3476	1221.6835	1401.5757	1417.0422	1453.9469	1485.373	1787.7403	1843.0992	2871.5855	3143.1792	3144.3216	3176.2111	3231.5333	3246.1079
O=CC(=O)C1CC1	O=CC(=O)C1CC1	
InChI=1S/C5H6O2/c6-3-5(7)4-1-2-4/h3-4H,1-2H2	InChI=1S/C5H6O2/c6-3-5(7)4-1-2-4/h3-4H,1-2H2
