13
gdb 1417	4.20358	1.79572	1.32715	3.9195	57.19	-0.2778	-0.0018	0.276	865.6651	0.098627	-344.439723	-344.431893	-344.430949	-344.472302	26.632	
C	 0.0315568724	 1.8382614717	-0.0612354693	-0.391641
C	-0.0783504315	 0.3323272586	 0.1670017087	-0.065144
O	-1.486736613	 0.0411085585	 0.3336570561	-0.179702
C	-1.8035781637	-1.1007437385	 0.978528321	 0.178264
O	-2.9325320881	-1.4475576494	 1.1488986685	-0.268561
C	 0.4834911838	-0.448802297	-0.9335635391	 0.359972
C	 0.9494560863	-1.0890080143	-1.8367695827	-0.472224
H	 1.0805199657	 2.1222209461	-0.1734330641	 0.136195
H	-0.5090413269	 2.12061307	-0.9670841712	 0.149147
H	-0.3974450339	 2.3718446466	 0.7901390809	 0.135652
H	 0.4423696996	 0.0660154862	 1.0970595962	 0.119614
H	-0.9165361857	-1.6604126613	 1.3324169318	 0.085437
H	 1.358015675	-1.6593672671	-2.6347059669	 0.212991
50.0305	124.7861	178.1746	218.4119	224.9877	278.7415	401.0481	508.719	555.7314	642.2846	663.0728	686.0028	846.5067	947.6275	1041.1704	1051.3668	1110.6724	1122.984	1200.92	1338.8367	1356.1304	1407.5127	1438.4591	1482.7696	1494.3316	1869.9809	2240.4711	2955.9041	3013.9595	3057.1937	3138.7461	3144.1562	3500.7056
CC(OC=O)C#C	C[C@@H](OC=O)C#C	
InChI=1S/C5H6O2/c1-3-5(2)7-4-6/h1,4-5H,2H3	InChI=1S/C5H6O2/c1-3-5(2)7-4-6/h1,4-5H,2H3/t5-/m1/s1
