16
gdb 1618	3.72572	2.0929	1.42755	3.3111	60.92	-0.2987	0.0118	0.3105	848.3348	0.13506	-325.793904	-325.785563	-325.784619	-325.826204	29.663	
C	-0.0106650147	 1.5523407828	-0.0043040113	-0.395874
C	 0.020519261	 0.0201029286	 0.0317538465	 0.009266
C	 0.7640502292	-0.5025694418	 1.2671698192	-0.407169
C	-1.4234814785	-0.5345636081	-0.0321456859	 0.002734
O	-2.1652662639	-0.053513743	-1.1391383162	-0.412217
C	-1.4315822362	-2.0134288585	-0.0175934975	 0.258074
N	-1.4246502788	-3.168798598	-0.0485199248	-0.324796
H	 1.0061644179	 1.9530354866	-0.049570999	 0.118342
H	-0.5687003643	 1.9185746537	-0.868352685	 0.130435
H	-0.4869807142	 1.9524631569	 0.8985153866	 0.11825
H	 0.5391205384	-0.3445280508	-0.8667571632	 0.083149
H	 0.8207454245	-1.5943844161	 1.2794947101	 0.144255
H	 1.7851156178	-0.1109614931	 1.2881610107	 0.123628
H	 0.2666963461	-0.1775820647	 2.1886953699	 0.120532
H	-1.9717749511	-0.1886423338	 0.8526750057	 0.137171
H	-1.7599369932	-0.3955522507	-1.9446777959	 0.29422
77.4127	152.8271	211.1174	224.7907	249.4926	281.0958	312.2282	351.1518	418.1228	452.2319	544.8324	611.2507	822.6483	893.7941	937.1619	961.3528	985.1733	1068.6309	1134.4207	1140.4951	1192.9207	1265.6513	1299.0666	1345.9921	1371.9316	1402.1792	1417.1216	1426.9309	1489.3027	1490.297	1504.0228	1513.7466	2352.0369	3003.0673	3033.8279	3037.6756	3051.0352	3100.2332	3105.4405	3120.2184	3133.	3798.4105
CC(C)C(O)C#N	CC(C)[C@@H](O)C#N	
InChI=1S/C5H9NO/c1-4(2)5(7)3-6/h4-5,7H,1-2H3	InChI=1S/C5H9NO/c1-4(2)5(7)3-6/h4-5,7H,1-2H3/t5-/m0/s1
