14
gdb 569	8.09856	2.57394	2.18192	2.5785	49.25	-0.2475	0.0698	0.3174	592.6958	0.120269	-307.541973	-307.535777	-307.534833	-307.572115	21.686	
O	 0.0807969192	 1.3060600832	 0.320697412	-0.421031
C	 0.0721482274	-0.0689638185	-0.0024078893	-0.06212
C	-1.3485017924	-0.5425517267	-0.2597651749	 0.139282
C	-1.6330776074	-2.0554587133	-0.155656047	-0.300502
C	-2.4588737031	-1.6723267382	 1.089563939	-0.057478
O	-2.1713756807	-0.266888325	 0.9071458244	-0.30483
H	-0.5744596244	 1.4114501991	 1.0222454046	 0.293403
H	 0.687886345	-0.1990629294	-0.8999181509	 0.106358
H	 0.5168719064	-0.6773539106	 0.8035007189	 0.079322
H	-1.7576202321	-0.0376643049	-1.1436296503	 0.084609
H	-2.2047417063	-2.4806284331	-0.9810533228	 0.116076
H	-0.7557668533	-2.6781136406	 0.0328528718	 0.112157
H	-3.5345727424	-1.8740177938	 1.0293853805	 0.108086
H	-2.0818601359	-2.0472954383	 2.0484465739	 0.106669
76.5298	127.9522	226.4659	388.2374	474.8126	496.2183	761.495	792.9617	869.957	907.1996	969.4238	998.3393	1034.4627	1070.6326	1101.8869	1144.5994	1170.4827	1211.0365	1228.7948	1259.1801	1288.6819	1339.988	1363.6744	1397.3419	1438.6936	1489.3056	1497.8238	1531.9661	2960.457	3021.6678	3032.029	3062.8335	3066.7707	3077.6548	3135.6285	3776.6047
OCC1CCO1	OC[C@H]1CCO1	
InChI=1S/C4H8O2/c5-3-4-1-2-6-4/h4-5H,1-3H2	InChI=1S/C4H8O2/c5-3-4-1-2-6-4/h4-5H,1-3H2/t4-/m1/s1
