14
gdb 4982	3.42654	2.36001	1.40352	3.7846	67.71	-0.2135	-0.0122	0.2013	824.8888	0.111369	-374.964295	-374.95766	-374.956716	-374.994716	25.901	
N	 0.0306660428	 1.4303090961	 0.0829501634	-0.612016
C	-0.0034415122	 0.0254153796	 0.0165397709	 0.197578
C	-1.1547614361	-0.7407324678	 0.063118567	-0.048147
N	-1.1502348129	-2.0826867668	 0.0390565883	-0.267643
C	 0.0469542731	-2.6476626528	-0.0502993969	 0.054469
N	 1.2305827302	-2.0272180664	-0.0859009367	-0.319331
C	 1.2102805992	-0.6977799268	-0.0403604249	 0.349497
N	 2.4084126986	-0.0150023598	-0.0970022641	-0.576831
H	 0.6081129654	 1.8370203511	-0.645981358	 0.252432
H	-0.8928704541	 1.8445567652	 0.0473941295	 0.24802
H	-2.1287533734	-0.2554013021	 0.1228522037	 0.096379
H	 0.0759573432	-3.7336667407	-0.0901343402	 0.108901
H	 3.210651782	-0.6108872998	 0.0535865523	 0.258232
H	 2.4309839543	 0.8458920411	 0.4331582457	 0.258461
174.4564	251.7191	292.6577	303.7051	443.972	455.3623	508.29	549.2018	604.6798	624.6186	670.2637	776.3344	786.0528	833.3453	917.9238	939.01	984.2777	1067.4655	1122.4466	1179.191	1281.5703	1309.0725	1350.5615	1367.5469	1451.3036	1508.7502	1601.6288	1617.5233	1643.8742	1659.3852	3128.9095	3165.5134	3505.6204	3546.6391	3602.7454	3659.8321
NC1=CN=CN=C1N	Nc1cncnc1N	
InChI=1S/C4H6N4/c5-3-1-7-2-8-4(3)6/h1-2H,5H2,(H2,6,7,8)	InChI=1S/C4H6N4/c5-3-1-7-2-8-4(3)6/h1-2H,5H2,(H2,6,7,8)
