16
gdb 2377	4.3187	2.24658	1.70166	3.211	62.11	-0.2409	0.0147	0.2556	774.9858	0.135121	-325.785959	-325.778053	-325.777109	-325.81818	27.646	
C	 0.2821180175	 1.3761587102	 0.2475313242	-0.400705
C	 0.0242203768	-0.0732927007	-0.0904880934	 0.022133
C	 0.8129349982	-0.7688266941	-1.1710660569	-0.261418
N	 0.9944397549	-1.0945348633	 0.2275073509	-0.075742
C	 2.1338196183	-0.9484829233	 1.009134772	 0.374938
C	 3.3649742016	-1.6444504689	 0.4567166049	-0.474597
O	 2.1142278653	-0.3711908694	 2.0750326316	-0.345256
H	 1.3046670397	 1.6692891082	-0.0064807766	 0.120922
H	-0.4094305906	 2.0178293936	-0.307806682	 0.118392
H	 0.1447479673	 1.5536703445	 1.3169887358	 0.151779
H	-1.0064725761	-0.3979027077	 0.0473962911	 0.101521
H	 0.3505193512	-1.5345100123	-1.7893771244	 0.123055
H	 1.5896131796	-0.1886236542	-1.6663222624	 0.121989
H	 3.8164312613	-1.0342291856	-0.3340030192	 0.137021
H	 4.0935159531	-1.7682947315	 1.2580096123	 0.14695
H	 3.1115642319	-2.6140267955	 0.0202622122	 0.139015
84.2369	102.2653	150.1361	178.1872	228.6336	368.5016	384.9499	440.8156	587.6353	631.1335	679.8796	828.1659	909.5847	913.2789	1010.6872	1045.2414	1050.98	1066.529	1122.8223	1135.3201	1161.4711	1191.9162	1211.8398	1374.8832	1391.8461	1411.8424	1437.3144	1469.6078	1479.6875	1483.6432	1491.4153	1514.5137	1785.8782	3043.5501	3043.6815	3093.9933	3105.3922	3110.6676	3120.0373	3128.7202	3159.6026	3180.7296
CC1CN1C(C)=O	C[C@H]1CN1C(=O)C	
InChI=1S/C5H9NO/c1-4-3-6(4)5(2)7/h4H,3H2,1-2H3	InChI=1S/C5H9NO/c1-4-3-6(4)5(2)7/h4H,3H2,1-2H3/t4-,6?/m0/s1
