12
gdb 4287	4.08132	1.88314	1.28858	5.2914	59.4	-0.2324	-0.0308	0.2016	849.8632	0.084813	-418.526902	-418.520547	-418.519603	-418.557371	24.07	
O	 0.0538489793	 1.3337151286	 0.0077516623	-0.398639
C	-0.0361622486	-0.0000832088	 0.0009510586	 0.494092
C	-1.1986555995	-0.6820414982	 0.0037683008	-0.396033
C	-1.2053704004	-2.1396801148	-0.0041154322	 0.394672
O	-2.2188723555	-2.8230605676	-0.0021264407	-0.380981
C	 0.1518486652	-2.724932865	-0.014915139	-0.257102
C	 1.2401941051	-1.9517544177	-0.0168489035	 0.063493
O	 1.183211801	-0.5843792087	-0.0090907101	-0.237289
H	 0.9876442324	 1.5792225394	 0.0036090103	 0.31277
H	-2.1340884815	-0.1394726787	 0.0119627178	 0.128143
H	 0.2495844434	-3.8031592513	-0.0213229279	 0.128249
H	 2.2680286791	-2.2885653771	-0.0244762064	 0.148625
161.146	199.1136	337.2351	364.4572	414.0134	485.6188	524.0236	548.158	678.2079	730.655	764.7931	834.9067	871.6742	924.9245	946.6284	958.066	1049.6831	1182.8035	1221.6126	1284.3822	1293.5865	1407.3454	1427.502	1646.446	1729.3101	1752.3815	3216.4291	3232.5115	3238.8044	3802.0606
OC1=CC(=O)C=CO1	Oc1cc(=O)cco1	
InChI=1S/C5H4O3/c6-4-1-2-8-5(7)3-4/h1-3,7H	InChI=1S/C5H4O3/c6-4-1-2-8-5(7)3-4/h1-3,7H
