17
gdb 1541	5.47018	1.27844	1.09729	2.9389	65.32	-0.2685	0.0292	0.2977	1073.8323	0.148373	-305.915175	-305.906665	-305.905721	-305.948239	29.747	
C	-0.0165815177	 1.5722832212	 0.0416904598	-0.386107
C	 0.019413493	 0.0421595863	 0.0146652919	-0.170611
C	 0.6901814013	-0.505135305	-1.2490335413	-0.155713
C	 0.692537561	-2.0454784209	-1.3094963227	-0.134474
N	-0.6749850623	-2.5689646799	-1.3711897733	-0.491315
C	 1.536798375	-2.51350822	-2.4319493453	 0.252684
N	 2.1593933105	-2.8958402565	-3.3284995493	-0.323554
H	 0.9923901442	 1.9973501552	-0.0012348726	 0.11633
H	-0.5788448235	 1.9708521185	-0.8100321795	 0.116721
H	-0.4937891809	 1.9394699596	 0.9552085894	 0.116932
H	 0.5595880033	-0.3288792987	 0.8958595635	 0.095862
H	-0.9947976338	-0.3625408286	 0.084185444	 0.122857
H	 0.182107591	-0.12266833	-2.1443713226	 0.10731
H	 1.726241555	-0.1531736721	-1.3110290581	 0.117322
H	 1.1464854226	-2.4267587842	-0.3862068402	 0.130544
H	-1.099868879	-2.308212422	-2.2572574657	 0.240454
H	-0.6637709996	-3.584110513	-1.345812088	 0.24476
76.6058	99.3177	128.3349	221.3491	244.5572	259.8761	307.5902	340.1731	422.439	570.5726	586.9687	748.6532	833.2345	873.9773	902.8854	937.5557	977.7935	1051.1447	1064.0768	1114.3189	1149.409	1225.0807	1280.6439	1294.3289	1334.6426	1345.8845	1393.6587	1395.1523	1414.8429	1481.123	1494.8448	1499.8852	1512.1271	1662.7197	2342.9223	3018.6128	3026.6178	3031.4129	3040.1019	3066.6568	3082.4608	3102.9732	3106.6595	3491.8239	3572.0982
CCCC(N)C#N	CCC[C@@H](N)C#N	
InChI=1S/C5H10N2/c1-2-3-5(7)4-6/h5H,2-3,7H2,1H3	InChI=1S/C5H10N2/c1-2-3-5(7)4-6/h5H,2-3,7H2,1H3/t5-/m1/s1
