15
gdb 4383	3.57049	2.02543	1.30276	3.5777	74.36	-0.2077	-0.0417	0.166	906.9683	0.119898	-362.707996	-362.700976	-362.700032	-362.739156	26.633	
C	 0.0857580674	 1.4782557401	 0.0084494608	-0.471714
C	-0.0654095039	-0.0063777126	-0.0158727111	 0.398028
C	-1.2183258617	-0.6963101526	-0.1274214056	-0.251788
C	-1.1674065141	-2.1328768872	-0.133126499	-0.063846
C	 0.0155716912	-2.7736526362	-0.027827669	-0.161573
C	 1.2547209395	-2.0336947182	 0.093106237	 0.377379
N	 2.4014569366	-2.5710522375	 0.1967397235	-0.538083
O	 1.1322105119	-0.6377014916	 0.0902519905	-0.276552
H	 0.7258719322	 1.8132762001	-0.8151313874	 0.147092
H	-0.8864649232	 1.966219696	-0.0779736861	 0.135695
H	 0.5637733803	 1.8010585068	 0.9398751236	 0.147078
H	-2.1568102095	-0.1653874645	-0.2103203986	 0.105496
H	-2.0906555221	-2.6957586655	-0.2231526787	 0.112574
H	 0.106402662	-3.8517431288	-0.0272255401	 0.122808
H	 3.1280044535	-1.8585218283	 0.2693970003	 0.217407
131.2709	159.1775	192.3104	295.0533	401.9351	466.4293	528.522	536.4155	582.5966	715.4032	734.8877	802.3168	840.792	864.1801	865.3466	978.9892	1005.2048	1008.9732	1063.37	1065.1135	1105.3219	1162.4428	1220.9174	1277.2283	1383.9664	1415.3259	1430.5442	1468.7903	1486.2562	1616.8667	1682.0349	1742.2669	3037.406	3091.8607	3141.1062	3185.6204	3223.8125	3229.6345	3489.4308
CC1=CC=CC(=N)O1	CC1=CCC=C([NH])O1	
InChI=1S/C6H7NO/c1-5-3-2-4-6(7)8-5/h2-4,7H,1H3	InChI=1S/C6H8NO/c1-5-3-2-4-6(7)8-5/h3-4,7H,2H2,1H3
