14
gdb 2439	4.41983	3.68248	2.90187	1.9921	56.02	-0.2483	0.0166	0.2649	537.4677	0.116975	-324.568597	-324.563663	-324.562719	-324.596956	20.087	
C	-0.024013031	 1.5371448879	-0.0459472854	-0.241804
C	 1.520210579	 1.4285770518	-0.0011453823	 0.118343
C	 1.3315686053	 0.120475609	 0.8061368469	-0.241804
C	 0.0089205214	-0.0216465178	-0.0079636281	 0.014138
N	 0.3324545143	-0.5199844082	-1.3512125918	-0.258053
C	 1.306449753	 0.0908562333	-1.8852047921	 0.109498
O	 2.0104011975	 1.1039353078	-1.3207480001	-0.236467
H	-0.4124368268	 1.9674271001	 0.8792214305	 0.108592
H	-0.4795376871	 2.0149479609	-0.9152690305	 0.112187
H	 2.1431281257	 2.2440270348	 0.3636202708	 0.088276
H	 2.0832278893	-0.6633059438	 0.6956217749	 0.112187
H	 1.1494416054	 0.3351632853	 1.8609791878	 0.108592
H	-0.8314054347	-0.5742534276	 0.4101542624	 0.077248
H	 1.6783898486	-0.1501588835	-2.877581563	 0.129067
317.6507	399.592	458.889	480.0225	615.2105	751.9814	818.5471	842.3574	871.9584	878.177	918.1007	950.5117	958.5779	1012.2442	1030.4644	1070.9869	1129.9448	1145.7596	1166.8192	1180.3513	1234.4965	1255.486	1277.1254	1327.1918	1356.92	1391.378	1466.7523	1496.6171	1701.7311	3070.084	3075.0301	3116.0058	3125.9636	3135.6922	3138.4579	3179.133
C1C2CC1N=CO2	C1[C@H]2C[C@@H]1[N][CH]O2	
InChI=1S/C5H7NO/c1-4-2-5(1)7-3-6-4/h3-5H,1-2H2	InChI=1S/C5H7NO/c1-4-2-5(1)7-3-6-4/h3-5H,1-2H2/t4-,5+
