12
gdb 848	7.13045	2.15289	1.6708	1.1474	52.27	-0.2136	0.0085	0.2221	701.6757	0.090513	-360.554015	-360.547651	-360.546706	-360.584384	22.795	
C	-0.0087335824	 1.4389609812	-0.0072691569	-0.486137
C	-0.0523249456	-0.0460293206	-0.0037572277	 0.40012
N	-1.0629559919	-0.8204795709	-0.2740116474	-0.381615
C	-0.5670118658	-2.1002495399	-0.1238789176	 0.318966
O	-1.3418937372	-3.181937188	-0.3259841738	-0.42905
C	 0.7385768767	-2.051068837	 0.2353644816	-0.153177
O	 1.073773502	-0.7136288022	 0.3135013382	-0.171175
H	 0.7336298088	 1.8088673812	-0.7219964711	 0.148223
H	-0.9908295387	 1.823465321	-0.282858513	 0.155548
H	 0.2630534953	 1.8267271244	 0.9799251185	 0.148228
H	-2.21525439	-2.8519610561	-0.5692145816	 0.306165
H	 1.5058940688	-2.769361873	 0.4540177008	 0.143904
76.251	211.9312	292.1878	346.4387	373.6938	461.6281	631.2128	647.1182	680.2002	732.4168	753.323	950.8962	1023.0019	1051.1805	1064.4991	1127.3067	1176.1172	1266.0149	1345.3405	1404.6969	1417.2782	1475.2574	1480.9425	1611.9256	1701.6156	3045.0498	3099.3243	3158.0818	3318.0043	3807.845
CC1=NC(O)=CO1	Cc1nc(O)co1	
InChI=1S/C4H5NO2/c1-3-5-4(6)2-7-3/h2,6H,1H3	InChI=1S/C4H5NO2/c1-3-5-4(6)2-7-3/h2,6H,1H3
