10
gdb 4224	5.19387	1.7641	1.73174	1.6957	41.35	-0.282	0.0329	0.3148	708.3077	0.06184	-453.654335	-453.64765	-453.646706	-453.685404	23.456	
F	 0.0030289895	 0.0691024368	-0.0804141948	-0.070876
C	-0.0285327119	 1.4029986878	 0.0079887838	 0.284391
F	 1.228340851	 1.8505042692	-0.0821485424	-0.070886
F	-0.7057358261	 1.8677618761	-1.052969166	-0.074668
C	-0.7036308487	 1.8686357746	 1.2949588011	-0.475831
C	-0.0246362947	 1.4027889165	 2.4934737835	 0.301269
C	 0.5318945007	 1.0212958776	 3.4858617014	-0.426821
H	-0.7380604309	 2.9629498493	 1.2624644259	 0.162467
H	-1.7379254407	 1.5094274972	 1.2638903231	 0.162458
H	 1.0274085117	 0.6813686948	 4.3616535542	 0.208496
77.5616	135.1079	327.5635	332.1601	357.1047	435.8002	535.0318	543.539	643.1375	667.4103	681.3597	845.0842	929.659	992.032	1143.0208	1180.95	1272.1282	1312.1046	1374.3751	1456.0026	2253.9513	3050.7645	3092.8832	3505.7384
FC(F)(F)CC#C	FC(F)(F)CC#C	
InChI=1S/C4H3F3/c1-2-3-4(5,6)7/h1H,3H2	InChI=1S/C4H3F3/c1-2-3-4(5,6)7/h1H,3H2
