16
gdb 2234	4.79023	2.74459	2.16092	1.5904	65.25	-0.2264	0.0198	0.2462	664.0798	0.138177	-288.627505	-288.621297	-288.620353	-288.657028	24.617	
C	-0.0465837952	 1.5541348091	 0.0352545225	-0.495343
C	 0.0895207509	 0.0547445439	-0.0058762614	 0.312223
N	-0.7785601301	-0.8010150801	 0.8591220693	-0.367071
C	 0.6879503484	-0.7827167198	 1.0725261278	-0.087232
C	 1.4177314276	-1.9576628011	 0.4308133298	-0.25946
C	 1.1385759012	-1.7591263637	-1.0469109564	-0.072943
C	 0.431006097	-0.6533015844	-1.2830703932	-0.099648
H	 0.8326170509	 2.0418325262	-0.3995556671	 0.126124
H	-0.9247834512	 1.8874553655	-0.5301994063	 0.124753
H	-0.1555384631	 1.9128489526	 1.0641981468	 0.113108
H	-1.2043250151	-0.2071950743	 1.5709375881	 0.218313
H	 1.0707173908	-0.3413641082	 1.9872965919	 0.081451
H	 2.4935720161	-1.9340243108	 0.6494927698	 0.10274
H	 1.0372550935	-2.9202172376	 0.7937498234	 0.118564
H	 1.460302771	-2.4706251012	-1.7992973398	 0.093492
H	 0.1039945375	-0.303315596	-2.2555711952	 0.090929
201.2761	234.4435	277.6495	343.8669	448.2354	497.82	603.0962	711.7424	746.2912	784.1132	837.882	896.6675	912.7418	939.865	953.4575	963.2629	1017.6649	1056.1836	1064.019	1113.4996	1130.626	1162.3943	1191.5637	1282.6324	1313.1882	1328.3073	1374.3534	1413.8144	1435.9453	1464.3873	1484.6947	1500.6696	1671.2937	3019.7784	3024.0998	3057.2462	3085.9829	3097.9463	3158.293	3184.4191	3209.4665	3457.7895
CC12NC1CC=C2	C[C@]12N[C@H]1CC=C2	
InChI=1S/C6H9N/c1-6-4-2-3-5(6)7-6/h2,4-5,7H,3H2,1H3	InChI=1S/C6H9N/c1-6-4-2-3-5(6)7-6/h2,4-5,7H,3H2,1H3/t5-,6+/m0/s1
