15
gdb 251	7.32032	2.08565	1.74516	3.9826	57.19	-0.3161	0.0346	0.3507	713.1432	0.130632	-250.585183	-250.578	-250.577056	-250.615918	25.297	
C	-0.0322789671	 1.5422615177	 0.0060969458	-0.394913
C	 0.018005116	 0.0104823372	 0.0364443255	 0.038067
C	 0.7909245999	-0.5057551468	 1.255074864	-0.390183
C	-1.4226762132	-0.5564693056	-0.0028930917	-0.328901
C	-1.4664478107	-2.0139938513	-0.0994427596	 0.262298
N	-1.4815116917	-3.166948901	-0.1795971009	-0.313591
H	 0.9780779337	 1.961863203	-0.0001515437	 0.122474
H	-0.5548773857	 1.9118478238	-0.882359565	 0.11646
H	-0.5493815715	 1.9361710142	 0.8890672238	 0.118357
H	 0.5283142143	-0.3382718791	-0.8700738702	 0.098177
H	 1.8179166943	-0.1283050545	 1.2488862223	 0.119787
H	 0.3192831107	-0.1719700465	 2.1871683428	 0.115535
H	 0.8323734476	-1.5986432926	 1.2705765372	 0.141893
H	-1.967852817	-0.2511966543	 0.8991948591	 0.147112
H	-1.9686515697	-0.1397167041	-0.8570452194	 0.147429
90.1727	155.0593	229.833	257.7873	336.9643	356.5928	399.2293	421.0576	545.9471	818.0692	878.3335	922.489	938.9665	969.0326	983.8659	1131.9113	1142.7361	1192.722	1255.8709	1306.6374	1366.3783	1370.3088	1405.1504	1425.647	1463.5798	1488.5418	1494.2226	1504.9859	1510.7595	2359.5968	3025.8428	3027.9619	3031.2319	3038.8698	3075.0588	3094.524	3100.7766	3108.3574	3115.9109
CC(C)CC#N	CC(C)CC#N	
InChI=1S/C5H9N/c1-5(2)3-4-6/h5H,3H2,1-2H3	InChI=1S/C5H9N/c1-5(2)3-4-6/h5H,3H2,1-2H3
