11
gdb 3885	7.52742	2.23694	1.73044	4.3517	50.01	-0.2179	0.027	0.2449	661.9396	0.080183	-372.747155	-372.741143	-372.740199	-372.776711	22.46	
N	 0.0877009374	 1.3640011774	 0.1621655137	-0.59275
C	-0.0053135807	-0.0029232153	 0.0224096121	 0.472262
N	-1.1157953832	-0.6656982357	-0.030552204	-0.213133
O	-0.7028440016	-2.0439851619	-0.0485502945	-0.244141
C	 0.6605624964	-2.1257892274	-0.0254271734	 0.496628
N	 1.3948133561	-3.1538313606	-0.0113994052	-0.604065
N	 1.1022063653	-0.8073072228	-0.0207290354	-0.374333
H	 0.7531591807	 1.8007762276	-0.4631955334	 0.265033
H	-0.8207411541	 1.806130241	 0.1007222159	 0.276075
H	 0.8306735974	-3.9999890446	-0.0118595034	 0.233504
H	 2.0461501762	-0.5497076277	 0.2093114578	 0.284919
155.9951	296.993	338.6955	348.3797	391.364	503.0799	644.3218	659.791	716.6469	749.7639	765.5041	777.8101	904.6785	971.4698	1042.481	1071.8326	1157.3099	1298.7398	1320.5285	1548.8633	1629.0396	1701.8291	1795.0062	3537.9973	3542.1442	3639.202	3686.6339
NC1=NOC(=N)N1	NC1=NO[C@@H]([NH])N1	
InChI=1S/C2H4N4O/c3-1-5-2(4)7-6-1/h(H4,3,4,5,6)	InChI=1S/C2H5N4O/c3-1-5-2(4)7-6-1/h2,4H,(H3,3,5,6)/t2-/m0/s1
