17
gdb 3078	9.78597	0.98531	0.94741	2.7663	61.17	-0.2636	0.0781	0.3417	1200.1671	0.147127	-346.824942	-346.816785	-346.815841	-346.858128	28.091	
O	-0.1176948648	 1.3958340387	 0.3141073721	-0.420346
C	 0.003009775	 0.0088300653	 0.0394221369	-0.075226
C	-1.3955410796	-0.592594882	 0.0390946279	-0.159984
C	-1.3982701435	-2.0928402611	-0.2781915997	-0.226048
C	-2.7886368381	-2.678946498	-0.2501745249	 0.103439
C	-3.0633987828	-4.0419011154	 0.2189520864	-0.182253
O	-3.3575522786	-2.9119141643	 1.0422881351	-0.235471
H	 0.7649955793	 1.7763094709	 0.3371162074	 0.285313
H	 0.4834121635	-0.1634718545	-0.9387193844	 0.08086
H	 0.6239823335	-0.4963675568	 0.7976991903	 0.085084
H	-1.8549886981	-0.4244176365	 1.0192003372	 0.124637
H	-2.0059497078	-0.0505885589	-0.693755908	 0.104956
H	-0.9612954581	-2.2683174363	-1.2710169822	 0.099039
H	-0.7758223331	-2.6327653075	 0.4457786241	 0.102453
H	-3.4918958593	-2.2408413603	-0.962125709	 0.090049
H	-3.928714205	-4.5851340895	-0.1588602204	 0.113041
H	-2.2386791724	-4.6667138641	 0.5607464912	 0.110457
64.607	86.6333	125.711	145.6416	256.999	294.51	337.3427	453.2696	498.0307	753.5819	796.5001	857.1878	887.6052	947.952	1009.9256	1048.2973	1049.8862	1078.563	1105.4555	1157.6519	1160.8611	1181.2425	1222.053	1233.535	1293.3914	1300.5344	1306.7228	1318.1145	1375.347	1449.5795	1464.0231	1472.6206	1499.5903	1528.6306	1531.4806	2953.101	2978.7558	3014.4328	3035.7566	3055.4089	3078.9897	3084.1103	3091.9989	3164.7035	3830.7926
OCCCC1CO1	OCCC[C@H]1CO1	
InChI=1S/C5H10O2/c6-3-1-2-5-4-7-5/h5-6H,1-4H2	InChI=1S/C5H10O2/c6-3-1-2-5-4-7-5/h5-6H,1-4H2/t5-/m0/s1
