15
gdb 3342	4.31165	3.22976	2.20725	1.706	55.48	-0.2389	0.0752	0.3142	618.1807	0.12736	-345.627545	-345.62183	-345.620885	-345.656926	22.233	
C	-0.0299379891	 1.5310015506	-0.0512163979	-0.333601
C	 1.3028229398	 0.7956439437	 0.0011832647	-0.088891
C	 2.1065283101	 0.7937650634	 1.2971352472	-0.101146
O	 1.7270121993	-0.2751486614	 2.1626204735	-0.226022
C	 0.3468173593	-0.3022519318	 2.3565214701	 0.008509
O	-0.3642434532	-0.6685454148	 1.1932389516	-0.247604
C	 0.0053648986	 0.0310663318	 0.0379967628	 0.141787
H	-0.3178234049	 2.0983518664	 0.8283174562	 0.117756
H	-0.3409857372	 1.9759040515	-0.9899498169	 0.115917
H	 1.8857442118	 0.749947158	-0.9122109674	 0.095534
H	 3.1680238812	 0.6412574126	 1.0900063298	 0.118166
H	 2.0016689139	 1.7508570609	 1.8326893349	 0.096026
H	 0.1316689412	-1.0764155553	 3.095462138	 0.120952
H	-0.0069829615	 0.6777803294	 2.7288755965	 0.077562
H	-0.2878607393	-0.5410701352	-0.8350399528	 0.105055
139.5703	280.3769	377.2412	424.1005	501.5351	545.1479	733.7145	774.8143	804.974	849.8591	919.9429	959.3355	987.3835	999.6678	1030.4187	1074.0782	1086.2422	1123.1866	1161.3011	1186.7598	1196.1023	1245.6033	1273.7767	1328.0578	1363.4673	1386.3763	1411.9812	1451.2819	1480.2291	1498.437	1518.8615	2923.7823	2975.598	3098.8595	3112.4143	3128.7443	3161.2169	3174.2381	3215.9593
C1C2COCOC12	C1[C@H]2COCO[C@@H]12	
InChI=1S/C5H8O2/c1-4-2-6-3-7-5(1)4/h4-5H,1-3H2	InChI=1S/C5H8O2/c1-4-2-6-3-7-5(1)4/h4-5H,1-3H2/t4-,5-/m0/s1
