15
gdb 3722	6.81263	1.88376	1.63246	1.928	62.54	-0.2393	0.0281	0.2674	781.2499	0.127347	-304.72872	-304.722039	-304.721095	-304.760046	24.219	
C	 0.064252766	 1.4444886661	-0.3672903099	-0.368975
C	-0.0807592506	 0.0658405249	 0.2984925629	-0.282214
C	-1.4442293525	-0.5334395753	 0.1213573914	 0.347282
N	-2.2953771666	-0.5966991416	 1.1454382969	-0.289626
N	-3.4081316314	-1.1586180453	 0.6317558671	-0.180528
C	-3.2932323291	-1.4575571449	-0.6840168867	-0.017954
C	-2.027217492	-1.0647520914	-1.0570566168	-0.27629
H	 1.0722055608	 1.8451509696	-0.2198609744	 0.109891
H	-0.1207678876	 1.386162268	-1.4447570813	 0.115019
H	-0.6514771787	 2.1562182459	 0.0552203141	 0.124489
H	 0.6743991419	-0.6153879642	-0.1126424735	 0.10255
H	 0.1159221229	 0.1497562759	 1.3715473302	 0.116477
H	-4.1961029536	-1.3179681994	 1.2353823127	 0.272538
H	-4.0987231759	-1.9173306595	-1.2348657054	 0.129214
H	-1.5834440433	-1.1507928689	-2.0359632374	 0.098127
35.2935	163.6176	216.22	347.5148	400.6516	495.2423	640.3751	665.8514	735.2998	771.9703	790.1563	841.162	943.4645	958.5613	1002.7355	1062.0493	1068.7452	1088.0809	1116.16	1207.1393	1273.6092	1301.2212	1355.8864	1406.126	1409.4962	1472.8072	1480.6975	1490.4393	1497.0935	1509.9948	1576.4842	3031.5862	3035.3224	3082.8975	3106.3442	3113.3921	3252.9343	3272.0432	3680.336
CCC1=NNC=C1	CCc1n[nH]cc1	
InChI=1S/C5H8N2/c1-2-5-3-4-6-7-5/h3-4H,2H2,1H3,(H,6,7)	InChI=1S/C5H8N2/c1-2-5-3-4-6-7-5/h3-4H,2H2,1H3,(H,6,7)
