16
gdb 4823	4.67349	1.38963	1.15445	2.5465	68.12	-0.2259	0.005	0.2309	1048.9811	0.131876	-379.957645	-379.949688	-379.948744	-379.990659	28.275	
C	 0.2322069101	 1.4155456225	-0.072428753	-0.49482
C	 0.0017981305	-0.0463616093	 0.0309619901	 0.324024
C	-1.0795802577	-0.8369078999	 0.2340835789	-0.197005
N	-0.6913903174	-2.1723062008	 0.2407918905	-0.300954
C	 0.5890795104	-2.1397968115	 0.0488985844	 0.357424
C	 1.5470762076	-3.27968791	-0.0964219829	-0.254539
N	 2.0664145566	-3.4944104256	-1.454386564	-0.498183
O	 1.0882935289	-0.8779394299	-0.0900167649	-0.21131
H	 0.9234971974	 1.7697697332	 0.7005016341	 0.142414
H	 0.6578622309	 1.6894537056	-1.0443982729	 0.140313
H	-0.7148715036	 1.946511377	 0.0471545484	 0.141798
H	-2.1074778654	-0.542516104	 0.3771655987	 0.118397
H	 2.4020975685	-3.1273000523	 0.5715577672	 0.12525
H	 1.0275771818	-4.1827720144	 0.2325492475	 0.140461
H	 1.2867212152	-3.6381961665	-2.0907780678	 0.233536
H	 2.5355618562	-2.6506551239	-1.7720711842	 0.233191
45.2867	125.7733	149.6231	218.8837	258.1803	317.0342	392.4823	431.0279	622.1235	650.682	703.5582	776.8579	849.0607	877.0621	909.9563	966.0256	993.5124	1036.0217	1067.8854	1096.9542	1122.6395	1181.406	1226.4754	1258.4333	1353.512	1367.9458	1396.1417	1420.0265	1469.1714	1472.5402	1491.4276	1604.9002	1649.2047	1665.6895	3032.0908	3050.7376	3083.4704	3114.9964	3129.0448	3260.8177	3484.6985	3563.6162
CC1=CN=C(CN)O1	Cc1cnc(CN)o1	
InChI=1S/C5H8N2O/c1-4-3-7-5(2-6)8-4/h3H,2,6H2,1H3	InChI=1S/C5H8N2O/c1-4-3-7-5(2-6)8-4/h3H,2,6H2,1H3
