11
gdb 341	9.04216	2.43702	1.943	0.6161	45.8	-0.2725	-0.0352	0.2374	588.7943	0.084124	-322.477268	-322.470851	-322.469907	-322.507813	20.743	
C	-0.0160798884	 1.4874839529	 0.0017354897	-0.344615
N	 0.0022417336	 0.0260917781	 0.0097461586	-0.079729
C	-0.0840298435	-0.6754640189	 1.2039103524	 0.173988
O	-0.177571747	-0.1683715116	 2.2927148126	-0.299631
C	 0.1071404986	-0.6539536728	-1.1927674825	 0.164954
O	 0.1857685914	-0.1101368057	-2.2651216242	-0.299089
H	 0.9040695969	 1.8682156584	-0.4465611077	 0.154869
H	-0.8621850815	 1.8452275586	-0.5887802836	 0.154886
H	-0.1035214148	 1.8199139991	 1.034536147	 0.169219
H	-0.0570029106	-1.7680130699	 1.0430087444	 0.103118
H	 0.1107162654	-1.7509927682	-1.0595727567	 0.102031
56.9699	138.2564	273.1654	315.4564	323.6632	359.7299	546.2346	770.8816	876.0342	1027.8498	1039.2201	1075.078	1159.204	1294.6164	1358.2015	1433.6218	1447.9247	1463.076	1490.7981	1508.1123	1786.7859	1852.1838	2962.0804	2985.6711	3066.2848	3133.699	3181.3673
CN(C=O)C=O	CN(C=O)C=O	
InChI=1S/C3H5NO2/c1-4(2-5)3-6/h2-3H,1H3	InChI=1S/C3H5NO2/c1-4(2-5)3-6/h2-3H,1H3
