14
gdb 2900	6.92692	1.87275	1.50799	5.3865	64.89	-0.2072	-0.0281	0.1791	773.9363	0.115229	-324.602888	-324.596471	-324.595526	-324.633298	23.18	
O	-0.1028101933	-0.0432596067	 0.139858918	-0.311016
C	-0.0242385161	 1.1729076073	 0.1133766876	 0.054469
C	 1.2024141288	 1.9164716944	 0.0162896979	 0.179562
C	 1.3115797979	 3.266204657	-0.0408148519	-0.07014
N	 2.6010424288	 3.6929267055	-0.2004204016	-0.278941
C	 3.5125354095	 2.5572824534	 0.0477875047	-0.16956
C	 2.5920416211	 1.317668665	-0.1144557967	-0.311715
H	-0.9411908061	 1.8053859998	 0.1745555956	 0.042767
H	 0.5065543837	 3.9912338021	-0.011435435	 0.131645
H	 2.8665576291	 4.617401581	 0.101186228	 0.250072
H	 4.3482081015	 2.5707186742	-0.6562069028	 0.119573
H	 3.9227737321	 2.6161130361	 1.0651091672	 0.111794
H	 2.7941891583	 0.5456923521	 0.6314409059	 0.1285
H	 2.7217215244	 0.8506169287	-1.098047597	 0.12299
121.2637	170.2877	186.3262	348.8561	450.7495	493.7483	516.6099	695.4922	775.5748	849.5847	898.2042	921.4146	945.019	1004.0544	1024.6448	1074.8235	1155.7334	1189.201	1223.47	1287.4587	1293.634	1333.8112	1363.8147	1428.5824	1472.6286	1493.9831	1524.6876	1661.6263	1756.7505	2845.7066	3009.1995	3035.7745	3088.5598	3101.2348	3211.6376	3625.6116
O=CC1=CNCC1	O=CC1=CNCC1	
InChI=1S/C5H7NO/c7-4-5-1-2-6-3-5/h3-4,6H,1-2H2	InChI=1S/C5H7NO/c7-4-5-1-2-6-3-5/h3-4,6H,1-2H2
