12
gdb 1826	6.49521	2.26687	1.69974	1.1199	52.81	-0.2524	0.0051	0.2575	676.3686	0.092687	-356.758284	-356.752146	-356.751201	-356.788406	22.247	
N	-0.1120324775	 1.2939073684	 0.0376754479	-0.536483
C	-0.0074688875	 0.0307876781	 0.0086375981	 0.402109
C	-1.207692048	-0.913289717	-0.0112601151	-0.228045
N	-0.5830534067	-2.2205618163	 0.0734597316	-0.351851
C	 0.786286893	-2.1659174713	-0.0175149212	 0.457287
O	 1.5739431512	-3.0778422704	-0.0766304065	-0.394096
N	 1.1025851267	-0.7961865453	-0.0157530321	-0.388018
H	 0.799873514	 1.7524380414	 0.0428504494	 0.214259
H	-1.8705419308	-0.7038861814	 0.8341277418	 0.147877
H	-1.7790297023	-0.7709910483	-0.9365099558	 0.143765
H	-1.0570399811	-3.0854981912	-0.119500918	 0.265865
H	 2.0605573289	-0.4876507267	-0.0145396502	 0.26733
111.5878	138.196	367.357	388.8573	496.6584	541.8058	553.0393	628.9274	714.3439	764.3116	857.4325	887.5951	982.8417	1026.5209	1077.1469	1111.4158	1197.1558	1235.4386	1320.291	1348.6228	1410.6377	1432.704	1510.3143	1772.8986	1874.4287	3034.9328	3078.0352	3469.8218	3668.3707	3682.9934
N=C1CNC(=O)N1	[NH][C]1CNC(=O)N1	
InChI=1S/C3H5N3O/c4-2-1-5-3(7)6-2/h1H2,(H3,4,5,6,7)	InChI=1S/C3H5N3O/c4-2-1-5-3(7)6-2/h1H2,(H3,4,5,6,7)
