10
gdb 1013	9.51816	1.99547	1.64963	3.5836	56.07	-0.2551	-0.0376	0.2175	670.2864	0.070143	-318.409788	-318.404445	-318.403501	-318.438964	19.114	
N	 0.1068741223	-1.1525447359	-0.0050812271	-0.337607
C	 0.0250535473	 0.0036335558	 0.0025155116	 0.209453
C	-0.0643675865	 1.4102254429	 0.0116211939	 0.211104
C	-1.1442432775	 2.27125888	 0.030657045	-0.148673
N	-0.7228578142	 3.5685850618	 0.032430543	-0.238111
C	 0.5938367482	 3.5126467937	 0.0148396943	 0.032091
N	 1.0481064243	 2.235305428	 0.0016577358	-0.309463
H	-2.1899169733	 2.0059891029	 0.0428921173	 0.14188
H	 1.2621550254	 4.3605771914	 0.0108469768	 0.151806
H	 2.007214724	 1.9277325394	-0.0126775407	 0.287521
172.5757	175.3911	503.4303	554.9659	559.0261	581.558	674.7349	678.9689	841.8307	884.0964	931.2565	1018.1518	1121.4358	1162.7327	1259.3531	1289.9664	1365.1868	1432.7081	1475.4243	1583.1271	2341.3239	3258.9532	3264.6264	3658.5119
N#CC1=CN=CN1	N#Cc1cnc[nH]1	
InChI=1S/C4H3N3/c5-1-4-2-6-3-7-4/h2-3H,(H,6,7)	InChI=1S/C4H3N3/c5-1-4-2-6-3-7-4/h2-3H,(H,6,7)
