15
gdb 2586	3.02692	2.74901	1.71963	4.8629	61.46	-0.2728	0.0227	0.2955	762.0576	0.12523	-304.688809	-304.681478	-304.680534	-304.72012	26.386	
C	-0.26979587	 1.4854916481	-0.0514023842	-0.387352
C	 0.1846729479	 0.0258893684	 0.0567746716	-0.263029
C	 0.7911394763	-0.5135985827	-1.2323080566	 0.159284
C	 0.6228760538	-1.9548955892	-1.5890259931	-0.268602
N	-0.0873981795	-0.9233770753	-2.3502637354	-0.322173
C	 2.0065399052	 0.159596296	-1.6523373244	 0.290115
N	 2.9867084254	 0.7003378529	-1.9409165295	-0.342923
H	 0.5714762991	 2.1402030764	-0.2968895938	 0.149029
H	-1.0290584751	 1.6100992568	-0.8301825681	 0.123502
H	-0.6982925836	 1.8254350428	 0.8954070162	 0.123495
H	 0.9200396646	-0.0774400461	 0.8631344126	 0.125571
H	-0.6625442205	-0.6186336643	 0.3211558695	 0.101561
H	 1.4053836042	-2.4697346048	-2.137039361	 0.144631
H	 0.0727627644	-2.5688206703	-0.8805897004	 0.125658
H	-1.0565041422	-0.8575190986	-2.0457929734	 0.241231
95.6649	160.064	209.4635	239.2184	256.37	364.4906	431.3299	573.4133	594.8149	656.5839	784.3635	855.3029	884.3853	926.0604	983.0547	997.9047	1050.7834	1104.5683	1119.7234	1150.2715	1247.661	1273.9251	1304.827	1363.5413	1383.6949	1417.0907	1477.8834	1498.553	1505.6993	1507.8552	2357.1715	3030.0291	3042.6206	3069.1566	3113.6786	3114.8589	3120.8213	3208.7478	3494.03
CCC1(CN1)C#N	CC[C@]1(CN1)C#N	
InChI=1S/C5H8N2/c1-2-5(3-6)4-7-5/h7H,2,4H2,1H3	InChI=1S/C5H8N2/c1-2-5(3-6)4-7-5/h7H,2,4H2,1H3/t5-/m1/s1
