17
gdb 1512	8.41075	1.18516	1.0677	3.4827	62.09	-0.2436	-0.0086	0.235	1119.7258	0.145021	-346.861026	-346.852067	-346.851122	-346.895676	29.599	
C	-0.0177873176	 1.5033892305	 0.1318592507	-0.375852
C	-0.0303020884	-0.0036970501	-0.1138892709	-0.285233
C	 0.7219141187	-0.4130007364	-1.375477104	 0.354957
O	 1.1267781935	 0.3845571228	-2.1831603396	-0.276469
C	 0.9260340286	-1.9181924558	-1.5411704711	-0.149025
O	 1.4953836907	-2.2019505122	-2.7815655271	-0.209369
C	 1.7286812301	-3.5771891393	-2.974780681	-0.225484
H	 1.0029984556	 1.8677524026	 0.2755111283	 0.129236
H	-0.434854754	 2.0373374675	-0.7249255179	 0.137669
H	-0.6025137446	 1.7556492912	 1.0206630769	 0.109991
H	 0.3875980141	-0.553370969	 0.740321112	 0.115786
H	-1.0609483151	-0.3733772748	-0.214663044	 0.125667
H	 1.564891726	-2.2666596376	-0.7069502553	 0.104517
H	-0.0475885293	-2.4259571471	-1.4075368642	 0.100751
H	 2.4232536685	-3.9844179951	-2.2226785995	 0.104479
H	 0.7958486892	-4.1619393819	-2.9313098192	 0.103952
H	 2.172779774	-3.6932927753	-3.9658800942	 0.134427
32.7848	70.1942	90.2441	148.7378	193.1763	235.6344	275.5705	348.4699	409.1001	474.3768	657.5638	749.5188	848.9428	937.679	961.0511	1008.0032	1066.5635	1115.3246	1131.603	1175.2394	1184.1985	1241.3628	1249.8139	1291.8747	1364.9135	1408.1358	1413.5718	1452.8828	1469.1499	1486.6524	1491.6518	1492.8233	1499.1693	1516.6159	1830.9046	2925.6201	2945.7412	2968.3051	3011.556	3014.2514	3043.5563	3052.0432	3119.542	3121.1445	3131.7302
CCC(=O)COC	CCC(=O)COC	
InChI=1S/C5H10O2/c1-3-5(6)4-7-2/h3-4H2,1-2H3	InChI=1S/C5H10O2/c1-3-5(6)4-7-2/h3-4H2,1-2H3
