13
gdb 425	4.92227	4.22037	2.37488	3.6013	51.94	-0.2414	0.0394	0.2809	542.8932	0.108561	-286.514923	-286.508751	-286.507807	-286.544706	21.114	
C	-0.0352797834	 1.4390446371	 0.0088875735	-0.343163
N	-0.0146272701	 0.001008863	 0.001424307	-0.061083
C	-1.0793163397	-1.0037772106	 0.0019222334	-0.166801
C	 0.0366512377	-2.0876562504	-0.0117476229	-0.367949
C	 1.0256797021	-0.8969195251	-0.0110091021	 0.407222
O	 2.2196585292	-0.7457568821	-0.018181615	-0.370241
H	 1.001879665	 1.7830726245	 0.0026694744	 0.162385
H	-0.5464047127	 1.8407710788	-0.8749962874	 0.127058
H	-0.5327543707	 1.8318974643	 0.9044720013	 0.127075
H	-1.7083238375	-0.9868974658	 0.8994369585	 0.110074
H	-1.7193677002	-0.9759505932	-0.8874884471	 0.110056
H	 0.091846889	-2.7195576401	 0.8761793951	 0.132681
H	 0.0803780516	-2.7088670905	-0.9078205987	 0.132687
127.0293	155.2788	195.5933	249.3099	478.491	556.8262	716.1098	775.4627	821.9905	946.3487	986.9835	1044.5168	1075.4385	1126.2952	1176.6184	1184.6017	1193.7055	1262.2296	1306.1677	1417.5445	1447.2077	1464.8518	1482.3897	1513.247	1537.1896	1878.8043	3011.5231	3027.08	3061.2452	3067.34	3089.6465	3128.4929	3147.121
CN1CCC1=O	CN1CCC1=O	
InChI=1S/C4H7NO/c1-5-3-2-4(5)6/h2-3H2,1H3	InChI=1S/C4H7NO/c1-5-3-2-4(5)6/h2-3H2,1H3
