19
gdb 1810	3.64586	2.01636	1.97228	1.3608	67.2	-0.2606	0.0735	0.3341	804.9382	0.170023	-310.911163	-310.902805	-310.901861	-310.943092	31.455	
C	-0.3299024442	 1.4241878355	 0.0267596374	-0.418228
C	 0.0918211479	-0.0460860853	-0.0381890748	 0.075204
O	 0.9905434737	-0.2764163563	-1.1234924601	-0.443854
C	 0.7859297089	-0.5370029128	 1.2220814944	 0.415677
C	 2.0807439436	 0.1667897991	 1.5831432629	-0.47195
C	-0.1050220129	-1.027457133	 2.3382896931	-0.31552
C	 0.6811046393	-2.0145594282	 1.5087702834	-0.305331
H	 0.5414934865	 2.0787025945	 0.117825887	 0.126426
H	-0.8731866741	 1.7092980823	-0.8821586302	 0.102408
H	-0.992895443	 1.6038709358	 0.8787715616	 0.120796
H	-0.8167048854	-0.6575825253	-0.1747810235	 0.053973
H	 0.6265679238	 0.1507378178	-1.9051835082	 0.278331
H	 1.915587592	 1.2175454032	 1.8465041787	 0.110004
H	 2.5554381883	-0.3147149949	 2.4434922242	 0.107077
H	 2.779635728	 0.1333996234	 0.7426926319	 0.133918
H	 0.2143578128	-0.843119098	 3.3586198188	 0.107148
H	-1.1808693248	-0.9875034176	 2.1988747949	 0.105045
H	 0.1396840147	-2.6346766771	 0.8023011275	 0.111465
H	 1.533106895	-2.5053355431	 1.9667954009	 0.107411
81.0352	197.6786	215.1819	260.3106	263.8237	278.1553	311.5287	335.7122	404.9785	508.5448	524.7236	705.4816	781.7255	865.7999	877.5321	928.759	943.0197	958.4567	1016.5516	1044.1919	1066.4374	1078.5564	1104.0003	1124.1427	1138.2101	1187.666	1238.0923	1315.4113	1354.1715	1370.243	1401.8916	1409.5948	1439.7699	1469.6961	1485.8967	1494.6485	1500.5902	1505.5748	1514.9054	2946.8942	3028.307	3032.7393	3091.4757	3095.0605	3115.4776	3120.293	3125.398	3132.2876	3203.035	3218.5211	3819.0768
CC(O)C1(C)CC1	C[C@@H](O)C1(C)CC1	
InChI=1S/C6H12O/c1-5(7)6(2)3-4-6/h5,7H,3-4H2,1-2H3	InChI=1S/C6H12O/c1-5(7)6(2)3-4-6/h5,7H,3-4H2,1-2H3/t5-/m1/s1
