12
gdb 1832	6.45297	2.27066	1.70122	0.8473	53.3	-0.2398	-0.0025	0.2373	676.2596	0.092663	-356.752251	-356.746255	-356.745311	-356.782049	22.224	
N	-0.1102497542	 1.330355255	-0.0423816799	-0.569308
C	-0.0057986811	 0.0665019881	 0.0283969359	 0.435759
N	-1.0733102818	-0.8029974848	 0.140148823	-0.315438
C	-0.6747226852	-2.1852593798	-0.0291221804	-0.286372
C	 0.8563299699	-2.1020064237	-0.0036558734	 0.416461
O	 1.6480442976	-3.0095775548	-0.0118531853	-0.350674
N	 1.138620528	-0.7515749516	 0.0217580084	-0.366478
H	 0.7979839334	 1.7823153884	-0.1069436105	 0.21394
H	-1.9756046102	-0.4628276956	-0.1472503157	 0.263725
H	-1.0266156714	-2.837335657	 0.7774819738	 0.147351
H	-0.9922440639	-2.6255207852	-0.9842096532	 0.142313
H	 2.0794357288	-0.3926854691	 0.0370331473	 0.26872
134.5311	177.9916	373.2382	425.0685	515.5678	535.4118	598.8647	632.5623	710.9099	724.3733	758.5213	885.521	973.1776	1017.8306	1068.6923	1126.0308	1196.8748	1230.2718	1301.6188	1350.4488	1410.8951	1437.7121	1503.8884	1782.3248	1864.8638	3018.4967	3067.6632	3527.8323	3660.2658	3662.8881
N=C1NCC(=O)N1	[NH][C]1NCC(=O)N1	
InChI=1S/C3H5N3O/c4-3-5-1-2(7)6-3/h1H2,(H3,4,5,6,7)	InChI=1S/C3H5N3O/c4-3-5-1-2(7)6-3/h1H2,(H3,4,5,6,7)
