14
gdb 2917	7.30082	2.02325	1.61616	3.1976	61.18	-0.226	-0.0054	0.2206	746.1067	0.114447	-320.77572	-320.768839	-320.767895	-320.806725	24.062	
C	 0.0011000734	 1.4216979898	 0.009166571	-0.338935
N	 0.034834915	-0.0318381425	 0.0047244195	-0.317613
C	-1.0732569774	-0.644351484	 0.0107804083	 0.406561
C	-1.2960965809	-2.1536496413	 0.0078697032	-0.256252
N	-2.7528210545	-2.3640413054	 0.0182278567	-0.244617
C	-3.2692352703	-1.1980768725	 0.0253826986	 0.070288
N	-2.3774493856	-0.133395244	 0.0215191263	-0.351055
H	 1.0218729822	 1.811195842	 0.0010702636	 0.129284
H	-0.5155934438	 1.8316627736	-0.8734555834	 0.106563
H	-0.4994151935	 1.8263645563	 0.9034656253	 0.106674
H	-0.8492665339	-2.6195230995	-0.8769614034	 0.145463
H	-0.8359176344	-2.6249701029	 0.882913026	 0.14546
H	-4.3367810027	-1.0009224019	 0.0339904625	 0.13388
H	-2.6240537737	 0.8404716123	 0.0276861357	 0.264299
98.3897	110.5755	211.7766	223.6268	341.0962	476.3579	500.2252	632.3516	690.7399	870.8828	883.82	929.4728	985.6945	993.9284	1036.9258	1086.5264	1108.4744	1163.319	1185.0287	1211.2028	1294.7781	1350.35	1400.8091	1437.5619	1453.8879	1495.1713	1508.4115	1684.503	1782.3603	2963.8188	3009.4432	3051.2154	3082.9496	3103.0747	3190.4959	3686.9849
CN=C1CN=CN1	CN=C1CN=CN1	
InChI=1S/C4H7N3/c1-5-4-2-6-3-7-4/h3H,2H2,1H3,(H,5,6,7)	InChI=1S/C4H7N3/c1-5-4-2-6-3-7-4/h3H,2H2,1H3,(H,5,6,7)
