13
gdb 610	6.92044	2.46124	2.05055	3.196	51.36	-0.2482	-0.0262	0.222	616.9206	0.107279	-286.474509	-286.468144	-286.4672	-286.50452	22.227	
C	-0.2475380193	 1.500320162	 0.0837394106	-0.396399
C	-0.0110472753	 0.00871184	 0.1240581039	 0.013098
N	 1.2472164569	-0.4983590098	-0.404054898	-0.330556
C	 0.9735310176	-0.6711088658	 1.0398460196	-0.120575
C	 1.8588407231	 0.0910147087	 1.962575976	 0.175115
O	 2.0304164799	-0.2057607925	 3.1188002302	-0.258749
H	 0.684651626	 2.0551638645	 0.2052319516	 0.133226
H	-0.6830077668	 1.785091102	-0.8798164031	 0.127166
H	-0.943257263	 1.8053323207	 0.8719830801	 0.12807
H	-0.9029281744	-0.5892062845	-0.063260919	 0.097653
H	 1.1240393993	-1.3828656158	-0.8884938004	 0.243435
H	 0.6893343233	-1.6503824509	 1.41759435	 0.103742
H	 2.3660995926	 0.9632969014	 1.4970118886	 0.084774
98.7158	184.7808	232.4606	294.9345	397.7771	457.0665	507.6921	749.173	845.8725	913.7053	969.8368	996.5835	1019.7463	1056.9759	1091.5957	1150.4002	1211.0429	1239.5558	1251.9344	1361.9329	1409.425	1422.5486	1459.0157	1488.6972	1502.795	1821.1992	2903.7383	3041.9221	3102.906	3105.2186	3137.776	3146.9796	3516.0974
CC1NC1C=O	C[C@H]1N[C@H]1C=O	
InChI=1S/C4H7NO/c1-3-4(2-6)5-3/h2-5H,1H3	InChI=1S/C4H7NO/c1-3-4(2-6)5-3/h2-5H,1H3/t3-,4+/m1/s1
