14
gdb 1759	4.65386	1.96309	1.74562	4.5999	58.55	-0.2796	0.0312	0.3108	748.8023	0.112273	-324.575989	-324.568524	-324.567579	-324.60712	26.893	
C	-0.0987883425	 1.545073389	-0.0382761166	-0.455683
C	-0.0101512599	 0.028119411	 0.0148962582	 0.141133
C	 1.3400280083	-0.6539431434	-0.2211271616	-0.351827
C	 0.741035051	-0.642785342	 1.1552348355	 0.087765
O	 1.2471271931	 0.2097881381	 2.1318328021	-0.416026
C	-1.1741305841	-0.6708640137	-0.4708600425	 0.241667
N	-2.1099255578	-1.2279305673	-0.8618060525	-0.344484
H	 0.7786320879	 1.9846288179	 0.4371774924	 0.13969
H	-0.1582424994	 1.8916632375	-1.0737375912	 0.134282
H	-0.9862006654	 1.8984923712	 0.4939354881	 0.141766
H	 1.3589348457	-1.5834671532	-0.7775645049	 0.139246
H	 2.1708411629	 0.0186183247	-0.4056004735	 0.129346
H	 0.3173944218	-1.5747828666	 1.5261412695	 0.115856
H	 2.1014177283	-0.1325433232	 2.415730967	 0.297268
152.4248	170.8	178.839	241.8496	261.1595	309.0555	426.2862	480.5977	567.5933	578.578	674.2198	805.866	878.9682	933.7964	970.9845	1038.6171	1052.9262	1109.4927	1117.2207	1186.9163	1263.8358	1292.5811	1314.2197	1408.5491	1424.5951	1478.0611	1488.934	1500.526	2349.6546	3052.5402	3118.9074	3119.2618	3139.8519	3150.1579	3235.9886	3808.333
CC1(CC1O)C#N	C[C@]1(C[C@H]1O)C#N	
InChI=1S/C5H7NO/c1-5(3-6)2-4(5)7/h4,7H,2H2,1H3	InChI=1S/C5H7NO/c1-5(3-6)2-4(5)7/h4,7H,2H2,1H3/t4-,5+/m1/s1
