12
gdb 4240	4.16846	2.0496	1.37401	2.695	61.19	-0.2542	-0.0502	0.2041	813.59	0.086769	-410.881568	-410.875269	-410.874325	-410.912405	23.324	
N	-0.0281362706	 1.2668666517	 0.4256939695	-0.557197
C	-0.0128881745	 0.0973875927	-0.0414761435	 0.481436
N	-1.1407182632	-0.5880122322	-0.4061826141	-0.351232
C	-1.1831135774	-1.8794372119	-0.9279707656	 0.425004
N	-2.3052071155	-2.3928440302	-1.2246002729	-0.534096
N	 0.0617141409	-2.516955341	-1.0834365012	-0.301043
C	 1.0979984648	-1.8716815239	-0.7414483834	 0.130872
O	 1.1673965347	-0.6165733249	-0.2328673398	-0.214206
H	 0.9124660781	 1.5929070842	 0.6317009913	 0.239046
H	-2.0196870572	-0.1064766192	-0.2840378904	 0.287464
H	-2.1532793787	-3.3317730376	-1.5891108091	 0.23693
H	 2.0931809985	-2.2975035777	-0.8320988508	 0.15702
92.96	131.2954	374.9808	403.3815	485.2502	548.257	603.8476	615.1191	706.7798	749.8585	788.7172	804.2196	875.4257	901.0721	953.7449	982.559	1062.4604	1135.7824	1171.721	1315.5814	1402.4623	1409.8087	1433.6408	1700.7867	1746.3389	1805.4875	3192.1976	3517.9633	3545.8177	3629.7526
N=C1NC(=N)N=CO1	[NH][C@@H]1N[C@@H]([NH])N=CO1	
InChI=1S/C3H4N4O/c4-2-6-1-8-3(5)7-2/h1H,(H3,4,5,7)	InChI=1S/C3H6N4O/c4-2-6-1-8-3(5)7-2/h1-5,7H/t2-,3+/m0/s1
