17
gdb 2346	6.64859	1.31016	1.19443	2.5403	61.84	-0.2544	0.0852	0.3396	1029.5695	0.146178	-346.82147	-346.813216	-346.812271	-346.854434	28.388	
C	-0.2737053687	 1.3549604308	-0.022684409	-0.224707
O	-0.1563542768	-0.0459494071	-0.0768736782	-0.232088
C	 0.8051052488	-0.4782766832	-1.0143100406	-0.081124
C	 0.8412551484	-1.9832614004	-0.9815258999	 0.052611
O	-0.0181604292	-2.6938257871	-1.8783891232	-0.255745
C	 1.3958396455	-2.8181266018	-2.0587245643	 0.076474
C	 1.9891781729	-2.2941815804	-3.343527539	-0.420763
H	 0.6761062112	 1.8347046417	 0.2647240171	 0.101579
H	-0.5905125644	 1.777310767	-0.9895444059	 0.105603
H	-1.0300684973	 1.5906200579	 0.7296657074	 0.129724
H	 0.552383859	-0.1231172742	-2.0241880583	 0.096095
H	 1.8015713707	-0.0757870671	-0.7553178463	 0.08615
H	 0.854878018	-2.3843489884	 0.0333814903	 0.096503
H	 1.7860422619	-3.7926830943	-1.7560313379	 0.087898
H	 1.5782068743	-1.3206830032	-3.6173141635	 0.1277
H	 3.0768850075	-2.2020863996	-3.2508404575	 0.122437
H	 1.7826913183	-2.9906443507	-4.1628353714	 0.131652
73.7734	92.0893	135.5047	177.4299	238.633	264.9843	340.7598	400.5464	490.4019	524.4457	767.7041	847.8621	917.8649	971.8878	1007.091	1024.6321	1096.0523	1119.7159	1156.7613	1175.2693	1181.3503	1191.8314	1229.6352	1268.6346	1305.8682	1364.1893	1411.5295	1426.0505	1471.6149	1477.7876	1486.3162	1491.2215	1497.3037	1512.9985	1524.2403	2940.1352	2967.4894	3008.6764	3011.8046	3039.9204	3077.4173	3099.8227	3102.7406	3116.2458	3136.6722
COCC1OC1C	COC[C@H]1O[C@H]1C	
InChI=1S/C5H10O2/c1-4-5(7-4)3-6-2/h4-5H,3H2,1-2H3	InChI=1S/C5H10O2/c1-4-5(7-4)3-6-2/h4-5H,3H2,1-2H3/t4-,5+/m0/s1
