11
gdb 925	5.7214	2.8745	1.91326	4.4021	55.47	-0.2389	-0.06	0.1788	608.2681	0.080268	-343.312201	-343.306972	-343.306028	-343.34119	19.65	
O	-0.0488833394	-0.0511128076	 0.003884788	-0.337386
C	 0.0313914099	 1.1456804019	 0.0088208982	 0.430294
O	-1.1819929719	 1.8770465123	 0.0288743261	-0.217713
C	-1.2121095817	 3.215340397	 0.0362358208	 0.104568
C	-0.1028051709	 3.9830083532	 0.025428672	-0.196794
C	 1.1625643634	 3.3182681632	 0.0051451116	-0.046923
C	 1.2270379406	 1.9642210001	-0.0027383396	-0.25001
H	-2.2271467449	 3.5963773634	 0.051749729	 0.143752
H	-0.1857745057	 5.0609227597	 0.0321367417	 0.118568
H	 2.0754143484	 3.9058452859	-0.0039237758	 0.122854
H	 2.164785602	 1.4237356409	-0.017967482	 0.12879
150.9629	367.2798	456.777	505.7346	546.942	611.0419	743.2936	757.0821	793.9086	864.0068	949.9068	950.1427	994.9207	1015.6417	1098.2401	1121.8719	1193.4005	1291.7563	1400.684	1465.7124	1582.4719	1678.6888	1851.5695	3181.1932	3202.0652	3222.5622	3235.8644
O=C1OC=CC=C1	O=c1occcc1	
InChI=1S/C5H4O2/c6-5-3-1-2-4-7-5/h1-4H	InChI=1S/C5H4O2/c6-5-3-1-2-4-7-5/h1-4H
