15
gdb 2402	5.99239	2.13664	1.98122	3.1388	61.45	-0.2386	0.0126	0.2511	696.0142	0.125693	-308.484017	-308.477824	-308.47688	-308.513806	23.78	
C	-0.1385868914	 1.5599555337	 0.0054714824	-0.440165
C	 0.0371695305	 0.0475868053	 0.0301114404	 0.048329
C	 1.2001263466	-0.642769343	-0.784012067	-0.182904
C	 2.1782625343	-0.1631713221	 0.3437626592	-0.24168
C	 0.9177337896	-0.644183707	 1.1427160901	-0.182892
C	 0.9462865859	-1.8269039091	 0.1619738093	 0.455126
O	 0.8377770155	-3.0134736735	 0.1452001976	-0.326906
H	 0.789732431	 2.118609355	 0.1413820035	 0.123679
H	-0.5748492159	 1.8697902997	-0.949963209	 0.12607
H	-0.8299011196	 1.8686470171	 0.7966569985	 0.126071
H	-0.9375007696	-0.4298527678	-0.1130851061	 0.087888
H	 1.3602005511	-0.6337800704	-1.8603311311	 0.090189
H	 3.0992736459	-0.7332094105	 0.4783289254	 0.115297
H	 2.3743410966	 0.9071159283	 0.3732942942	 0.111713
H	 0.7622031295	-0.6367754955	 2.2197136025	 0.090186
163.259	187.2495	254.8054	376.7411	474.045	517.3302	699.7221	709.5108	741.0762	768.2699	839.7041	889.0347	943.5841	1020.2884	1021.9875	1034.4806	1055.7608	1085.8677	1108.66	1137.3052	1141.1857	1197.0317	1200.7819	1240.815	1245.5565	1409.5876	1423.9639	1494.3976	1496.206	1529.9804	1918.5267	3039.9857	3053.3546	3085.9311	3097.8888	3125.0368	3140.6819	3144.1112	3159.2719
CC1C2CC1C2=O	C[C@H]1[C@H]2C[C@@H]1C2=O	
InChI=1S/C6H8O/c1-3-4-2-5(3)6(4)7/h3-5H,2H2,1H3	InChI=1S/C6H8O/c1-3-4-2-5(3)6(4)7/h3-5H,2H2,1H3/t3-,4+,5-
