21
gdb 2573	2.69458	2.48161	1.61521	0.1209	74.08	-0.2621	0.0816	0.3437	894.3035	0.19418	-274.983908	-274.975372	-274.974428	-275.016521	31.947	
C	 0.8416020114	-0.1817548679	-1.2349871831	-0.380701
C	-0.0729192199	-0.2133298673	-0.003819956	-0.252625
C	 0.6058653343	-0.7135691771	 1.2654794625	 0.417508
C	 1.7665131387	 0.1165077492	 1.8002483102	-0.252625
C	 1.377946537	 1.5369764125	 2.2296716689	-0.380701
C	-0.2687931732	-1.3999850037	 2.2892069884	-0.312995
C	 0.6892934602	-2.2115631929	 1.4478665491	-0.312994
H	 1.2780591835	-1.1681631629	-1.424678982	 0.116462
H	 0.2843818233	 0.117307841	-2.1283478414	 0.109177
H	 1.6664819112	 0.5272665349	-1.1118186612	 0.116844
H	-0.4902190854	 0.7872071997	 0.1681694101	 0.095624
H	-0.9321171203	-0.8619796	-0.2145820814	 0.089745
H	 2.200203343	-0.4095690827	 2.6596341462	 0.089745
H	 2.5643862943	 0.1666443661	 1.04813216	 0.095624
H	 1.027158575	 2.1368057592	 1.3838223912	 0.116844
H	 0.576473644	 1.5156643214	 2.9757722795	 0.116462
H	 2.2330449272	 2.0602907587	 2.6689609327	 0.109177
H	-0.0326867435	-1.2635101758	 3.3398495991	 0.10498
H	-1.3306848001	-1.4898078299	 2.0842211401	 0.104733
H	 0.2725358712	-2.8467786309	 0.6726014229	 0.10498
H	 1.568936978	-2.6248862716	 1.9306631941	 0.104733
63.1627	118.5395	207.3904	222.6585	238.4404	267.3479	354.3505	355.5452	416.3365	520.8294	670.8237	770.4325	791.3257	792.5909	885.6163	903.4461	927.2434	935.1861	1015.6195	1018.9083	1048.6634	1050.7188	1077.6948	1091.1922	1119.726	1132.0639	1188.2224	1266.8042	1275.4544	1335.8538	1337.1112	1370.0647	1403.509	1407.3037	1409.2723	1471.5463	1480.839	1486.9253	1500.4775	1501.3729	1503.5868	1508.7332	1514.1504	3016.8783	3019.2435	3034.0386	3034.2627	3049.5271	3050.3659	3101.4906	3102.1711	3102.8219	3104.8059	3122.7119	3127.2236	3199.1753	3213.5294
CCC1(CC)CC1	CCC1(CC)CC1	
InChI=1S/C7H14/c1-3-7(4-2)5-6-7/h3-6H2,1-2H3	InChI=1S/C7H14/c1-3-7(4-2)5-6-7/h3-6H2,1-2H3
