11
gdb 1821	6.70388	2.19274	1.66936	1.6419	54.38	-0.2518	-0.0964	0.1555	671.7409	0.078672	-343.305175	-343.29946	-343.298516	-343.334936	20.722	
O	 0.0119719818	-0.0069290605	 0.0032960395	-0.303155
C	-0.0207383442	 1.1988625011	 0.0104363583	 0.378529
C	-1.2632418476	 2.0886423382	 0.0321295373	-0.444373
C	-0.700304361	 3.5095905933	 0.0312448456	 0.37853
O	-1.3255374853	 4.5410605097	 0.0456277375	-0.303156
C	 0.7890528489	 3.3913951603	 0.0106689252	-0.156733
C	 1.1674294181	 2.104786109	-0.0012903102	-0.156731
H	-1.8988140298	 1.9096424802	-0.840461072	 0.163211
H	-1.8740403259	 1.9009531	 0.9204609174	 0.163239
H	 1.4265498937	 4.2672938698	 0.0065798429	 0.14032
H	 2.1775554113	 1.7136183589	-0.0171328613	 0.14032
90.1183	247.9483	386.5047	442.8652	522.8279	572.6841	654.8887	690.4852	813.2624	813.4813	844.2081	968.7093	1021.7947	1072.5859	1124.6111	1138.2875	1231.5615	1240.8981	1339.5924	1416.0078	1626.5415	1810.9685	1843.5558	3069.4093	3111.6814	3207.63	3229.7247
O=C1CC(=O)C=C1	O=C1CC(=O)C=C1	
InChI=1S/C5H4O2/c6-4-1-2-5(7)3-4/h1-2H,3H2	InChI=1S/C5H4O2/c6-4-1-2-5(7)3-4/h1-2H,3H2
