17
gdb 3461	5.19819	2.45973	2.43226	0.2731	68.11	-0.2213	0.0199	0.2412	659.7376	0.150186	-272.54938	-272.543448	-272.542503	-272.578603	24.375	
C	-0.1736569714	 1.5426613801	 0.0010435031	-0.434012
C	 0.0238447138	 0.0323580248	 0.0280441638	 0.071458
C	 1.1784333432	-0.6027988262	-0.8467005127	-0.074167
C	 2.1510238339	-0.2047127748	 0.3157605063	-0.214298
C	 0.904554867	-0.602390345	 1.1782867458	-0.074157
C	 0.7846741969	-2.0853403464	 0.8060490384	-0.085155
C	 0.9641316292	-2.0856361487	-0.5190575303	-0.085146
H	 0.7537413794	 2.1075103676	 0.126113935	 0.117064
H	-0.6227614296	 1.8506729577	-0.9501057079	 0.115912
H	-0.858890491	 1.851078481	 0.7989077576	 0.115914
H	-0.9428080756	-0.4639019594	-0.1025827021	 0.064533
H	 1.3517928411	-0.311794274	-1.8832932442	 0.053923
H	 3.0512737984	-0.8112399523	 0.4376301127	 0.091299
H	 2.4014266862	 0.85813258	 0.3494016034	 0.092545
H	 0.7963599359	-0.3109588076	 2.2235733115	 0.053922
H	 0.5872860908	-2.9036103055	 1.4839626545	 0.095183
H	 0.9540778419	-2.9042120911	-1.2246966849	 0.095182
194.569	271.0387	294.0324	476.1526	529.0288	538.2194	677.4441	718.0722	791.7866	830.0243	831.6651	869.884	904.3523	909.8887	937.519	979.6207	1017.9482	1057.0958	1081.9079	1084.7477	1099.1642	1112.0543	1151.2944	1213.5004	1237.064	1241.089	1246.5668	1256.3117	1324.1037	1376.1643	1407.6814	1487.8363	1495.4127	1509.4855	1620.9026	3029.6951	3053.8954	3062.8397	3086.3672	3107.9958	3111.0982	3111.191	3125.769	3217.027	3244.3111
CC1C2CC1C=C2	C[C@H]1[C@H]2C[C@@H]1C=C2	
InChI=1S/C7H10/c1-5-6-2-3-7(5)4-6/h2-3,5-7H,4H2,1H3	InChI=1S/C7H10/c1-5-6-2-3-7(5)4-6/h2-3,5-7H,4H2,1H3/t5-,6+,7-
