14
gdb 4523	3.68328	1.77545	1.20744	2.392	61.49	-0.1698	0.0496	0.2194	936.004	0.107114	-415.869946	-415.861655	-415.86071	-415.902353	30.122	
N	 0.0740152328	 1.3591813818	-0.224797384	-0.594114
C	-0.0535605503	-0.0169544754	-0.090266146	 0.400539
C	-1.1375536261	-0.8477343332	-0.0456775808	-0.420704
C	-0.581956698	-2.1718093933	-0.0054234702	 0.278797
O	-1.2523211561	-3.3584221935	 0.0501715694	-0.450562
C	 0.7737419495	-2.0699491075	-0.0213371543	 0.189451
N	 1.841296562	-2.9607539384	 0.0217307019	-0.602832
O	 1.0967699082	-0.7066237497	-0.0727665711	-0.181032
H	 0.9397852657	 1.7029666404	 0.1712746842	 0.255477
H	-0.7170803026	 1.8668126523	 0.1462930339	 0.252231
H	-2.1786226103	-0.5639524484	-0.0494052842	 0.087626
H	-2.1956746259	-3.176874551	 0.0272138486	 0.297262
H	 1.9125261688	-3.5470505823	-0.802263755	 0.243721
H	 1.8318613023	-3.5562031718	 0.8414817978	 0.24414
99.5849	183.1382	192.1656	200.5501	245.781	272.4397	313.2623	372.7725	540.4283	605.2915	641.7027	663.4173	671.9902	680.8198	689.8525	738.6404	837.7684	1020.4881	1081.1597	1104.8732	1198.7471	1208.1782	1217.2564	1338.5553	1390.5209	1479.456	1612.3205	1658.3346	1662.4669	1730.3107	3244.0475	3507.4071	3545.55	3571.0149	3646.5653	3850.8613
NC1=CC(O)=C(N)O1	Nc1cc(O)c(N)o1	
InChI=1S/C4H6N2O2/c5-3-1-2(7)4(6)8-3/h1,7H,5-6H2	InChI=1S/C4H6N2O2/c5-3-1-2(7)4(6)8-3/h1,7H,5-6H2
