15
gdb 3584	4.91148	3.22618	2.60083	2.2763	59.44	-0.2207	0.0718	0.2925	574.5685	0.128362	-304.643927	-304.638715	-304.637771	-304.672533	21.407	
C	 0.0993365786	 1.5492558996	 0.0818406357	-0.243444
C	 1.2751212511	 0.6467365576	-0.019569844	-0.02407
C	 2.0067977001	 0.2947765077	 1.2545194111	-0.044958
N	 1.4374940841	 0.9058799229	 2.4770217174	-0.334778
C	 1.0673124488	-0.4755083392	 2.111554121	-0.036601
C	-0.2530566325	-0.5837397666	 1.356483497	-0.167796
N	-0.09813039	 0.0927182338	 0.0454762643	-0.107586
H	-0.0314273812	 2.0706311773	 1.0244478925	 0.138283
H	-0.2639600507	 2.0691037092	-0.8010733066	 0.105885
H	 1.8138230982	 0.519577088	-0.9543975997	 0.086105
H	 3.0688028615	 0.0800428904	 1.2140316163	 0.08737
H	 2.1337566344	 0.887124318	 3.2186398318	 0.231353
H	 1.3940649594	-1.2954205924	 2.7448684706	 0.088691
H	-0.4773259795	-1.6387751386	 1.1634822536	 0.107033
H	-1.0923483423	-0.1555882076	 1.913862589	 0.114512
266.6513	303.6111	427.9814	536.3535	685.7389	699.5871	740.1402	782.6896	853.1984	859.7526	887.853	889.8639	954.1136	987.0235	1031.0628	1049.9171	1080.5949	1100.5858	1120.6711	1136.27	1163.6086	1167.211	1231.6359	1239.214	1272.4494	1325.7839	1362.8055	1383.6979	1419.1291	1483.3474	1498.8963	3039.7492	3084.2254	3108.2651	3144.4874	3148.3025	3178.226	3206.1806	3493.5515
C1C2C3NC3CN12	C1[C@H]2[C@H]3N[C@H]3CN12	
InChI=1S/C5H8N2/c1-3-5(6-3)4-2-7(1)4/h3-6H,1-2H2	InChI=1S/C5H8N2/c1-3-5(6-3)4-2-7(1)4/h3-6H,1-2H2/t3-,4-,5-,7?/m0/s1
