21
gdb 1141	4.65341	1.75304	1.64537	0.0846	74.65	-0.2778	0.0823	0.36	900.4961	0.19399	-274.991042	-274.982821	-274.981877	-275.022667	31.76	
C	-0.8819771086	 1.0660020131	-0.4606986375	-0.407502
C	 0.134860644	-0.0347096344	-0.1990352176	 0.064709
C	 1.4287532724	-0.0741526474	-1.0595128825	-0.267095
C	 2.2574700457	-0.4078258572	 0.2232573162	 0.359252
C	 2.5132317527	-1.9101068373	 0.3679446297	-0.432641
C	 3.5485872919	 0.3816941246	 0.4146647291	-0.447841
C	 1.0294896674	 0.0628041047	 1.0683517147	-0.2671
H	-0.4067432539	 2.0536702548	-0.4350320101	 0.108046
H	-1.3530350214	 0.9497041915	-1.4435699805	 0.11138
H	-1.6788092232	 1.0613524036	 0.2919577849	 0.111379
H	-0.3670411936	-1.0078252099	-0.23057127	 0.068505
H	 1.4702129405	-0.794473189	-1.8822851308	 0.087352
H	 1.6775751858	 0.9166098541	-1.4553600965	 0.087462
H	 3.2393529936	-2.2576885428	-0.3762664852	 0.108602
H	 2.9132545538	-2.1458756159	 1.3610751397	 0.108604
H	 1.5955490337	-2.4925266273	 0.2331771839	 0.109738
H	 3.3753367574	 1.4583567346	 0.3130058021	 0.104843
H	 3.977962053	 0.2048342453	 1.4083069615	 0.108745
H	 4.3033621517	 0.0933448521	-0.3270478837	 0.108748
H	 1.1415508013	 1.1004729338	 1.4013708609	 0.087463
H	 0.7543207256	-0.548917991	 1.9329975716	 0.087352
96.6029	217.1838	232.8501	248.1165	274.7552	315.9358	322.8436	370.7049	419.7704	436.2895	569.7602	734.8341	830.0506	869.4483	875.9699	903.5519	937.803	952.4684	966.0503	992.8354	1010.2003	1089.0593	1102.1971	1136.2767	1214.9004	1219.8806	1232.7536	1241.0693	1291.6656	1301.8154	1312.9233	1374.8307	1403.0806	1411.4954	1420.6742	1475.7776	1482.9685	1485.9776	1495.7634	1496.6942	1502.2591	1503.6533	1506.7013	3014.8917	3019.4706	3020.5014	3034.2296	3039.2399	3041.9498	3078.0571	3084.2213	3084.7714	3086.605	3088.2309	3089.0552	3092.6852	3097.3529
CC1CC(C)(C)C1	CC1CC(C)(C)C1	
InChI=1S/C7H14/c1-6-4-7(2,3)5-6/h6H,4-5H2,1-3H3	InChI=1S/C7H14/c1-6-4-7(2,3)5-6/h6H,4-5H2,1-3H3
