17
gdb 1241	6.56457	1.20513	1.07687	4.2551	65.88	-0.2467	0.0239	0.2706	1084.6075	0.147574	-305.906809	-305.898377	-305.897433	-305.939892	29.501	
C	 0.0254301264	 1.4960372056	-0.0701034371	-0.374536
C	 0.0328648548	-0.0334720183	 0.0232105818	 0.086754
C	 0.702816215	-0.5017098205	 1.3158165247	-0.404805
N	-1.3394459341	-0.5606203255	-0.0016608205	-0.300929
C	-1.9876896331	-0.4731310703	-1.3055832247	-0.265259
C	-3.2832152791	-1.1570845949	-1.29189638	 0.256126
N	-4.2942542131	-1.7154806103	-1.2881036654	-0.299146
H	 1.0475876802	 1.8826153922	-0.0170269051	 0.117696
H	-0.4065846793	 1.8524257013	-1.0101581502	 0.113341
H	-0.5540632285	 1.9226171818	 0.7545401693	 0.129034
H	 0.6181989631	-0.425259759	-0.8314790974	 0.05934
H	 0.1502692118	-0.1351554253	 2.1866652393	 0.132004
H	 0.7398724264	-1.5955226993	 1.3706148402	 0.112878
H	 1.7295665344	-0.1303788425	 1.3744379335	 0.121326
H	-1.3290422821	-1.532088262	 0.2916952961	 0.229153
H	-2.1648211885	 0.5781405955	-1.559082104	 0.158506
H	-1.3894748841	-0.8972380286	-2.1343410406	 0.128517
56.737	104.2008	131.4193	223.2313	255.6255	273.6719	356.2699	389.5425	440.3114	458.8232	564.8858	759.121	837.4137	930.9786	946.7404	959.9177	969.2077	1020.1457	1096.4592	1162.8689	1180.2924	1201.6597	1242.9241	1341.5	1374.4602	1389.6071	1404.1602	1417.4668	1478.9465	1486.8827	1494.9794	1498.3892	1511.0738	1516.5851	2368.185	2904.4713	2927.8707	3033.427	3039.6212	3061.4105	3100.9407	3106.842	3115.224	3121.8987	3521.1887
CC(C)NCC#N	CC(C)NCC#N	
InChI=1S/C5H10N2/c1-5(2)7-4-3-6/h5,7H,4H2,1-2H3	InChI=1S/C5H10N2/c1-5(2)7-4-3-6/h5,7H,4H2,1-2H3
