17
gdb 3351	4.7092	2.92493	2.20415	0.154	68.34	-0.2333	0.0284	0.2618	655.5053	0.151198	-272.586248	-272.580455	-272.579511	-272.615671	23.235	
C	-0.0322457344	 1.5141495791	-0.1986410565	-0.219121
C	 1.4940246162	 1.5955760392	 0.0851419941	-0.220058
C	 1.444885395	 0.1392118239	 0.6396505945	-0.048207
C	 1.2274980915	 0.0066235652	 2.1230903477	-0.074169
C	-0.0208509017	-0.3470985635	 2.4327415652	-0.058059
C	-0.8964251145	-0.541449026	 1.2133434865	-0.271035
C	-0.0062214402	-0.0214432035	 0.0678701243	 0.006195
H	-0.633060537	 2.051770431	 0.5402842677	 0.099904
H	-0.3551388229	 1.8273378673	-1.1944507873	 0.094961
H	 2.0898977999	 1.6695678381	-0.8289590996	 0.095408
H	 1.8274011286	 2.3731248138	 0.7778758363	 0.093648
H	 2.2324873117	-0.5279026054	 0.2724250735	 0.065718
H	 2.0188223537	 0.186316028	 2.8442765348	 0.086604
H	-0.3900817739	-0.500264276	 3.4417576783	 0.087254
H	-1.1726076929	-1.5979295782	 1.0885610259	 0.09964
H	-1.8411038781	 0.0145866543	 1.2822241595	 0.099621
H	-0.0860742209	-0.6140936273	-0.845143575	 0.061693
118.0581	252.5765	353.9883	453.0967	637.1327	696.2259	745.3668	762.8504	773.5909	850.7662	876.5041	905.2791	940.098	953.7054	963.983	982.07	1018.5212	1057.0183	1077.819	1110.6254	1130.8411	1186.1662	1198.1889	1224.3814	1251.5419	1267.1373	1272.1466	1303.9689	1312.0243	1332.3646	1380.0334	1475.5527	1484.9818	1494.4054	1677.0639	3004.4688	3032.5897	3036.9317	3051.39	3058.5069	3086.1719	3096.6012	3115.2505	3170.0484	3196.1255
C1CC2C=CCC12	C1C[C@H]2C=CC[C@@H]12	
InChI=1S/C7H10/c1-2-6-4-5-7(6)3-1/h1-2,6-7H,3-5H2	InChI=1S/C7H10/c1-2-6-4-5-7(6)3-1/h1-2,6-7H,3-5H2/t6-,7+/m1/s1
