15
gdb 2230	4.99766	2.77646	2.17986	1.8302	60.89	-0.2424	0.0043	0.2467	643.5451	0.125301	-308.513124	-308.506978	-308.506034	-308.542643	23.988	
C	 0.0351015569	 1.5124177448	-0.0242073329	-0.483671
C	-0.0647356578	 0.0184752896	 0.1169752232	 0.414641
C	-1.3695147115	-0.7138458817	-0.2149036529	-0.321454
C	-1.3042659338	-1.9611150944	 0.6425844288	-0.074636
C	-0.2086965296	-1.9911874759	 1.4057746072	-0.075834
C	 0.6417824745	-0.7968325615	 1.1258133433	-0.060951
O	 1.0991739028	-0.7338406454	-0.249049395	-0.298487
H	 1.0163180478	 1.8631844857	 0.3049932801	 0.129732
H	-0.0984881382	 1.8131942228	-1.0695734308	 0.126737
H	-0.7360036307	 2.0143357845	 0.5697674161	 0.120493
H	-2.2465985384	-0.0987624026	 0.02644082	 0.108289
H	-1.4315505175	-0.9493777604	-1.2843752677	 0.123505
H	-2.0609550991	-2.7363591946	 0.5970492556	 0.100732
H	 0.0648673773	-2.773042395	 2.1032312426	 0.100496
H	 1.3332674273	-0.386290436	 1.8561934325	 0.09041
185.8091	223.253	302.3908	375.5528	401.5538	529.8224	595.2565	712.5426	739.2794	808.2505	853.1934	893.2204	939.0285	944.6204	967.0784	983.0355	1008.9242	1070.1293	1094.5511	1140.9524	1194.8052	1223.9558	1273.89	1316.8273	1369.9075	1408.2014	1439.1373	1461.9671	1485.7544	1495.9371	1662.6395	3022.645	3033.7648	3060.5087	3094.6265	3122.7134	3155.1852	3190.7213	3219.3653
CC12CC=CC1O2	C[C@]12CC=C[C@H]1O2	
InChI=1S/C6H8O/c1-6-4-2-3-5(6)7-6/h2-3,5H,4H2,1H3	InChI=1S/C6H8O/c1-6-4-2-3-5(6)7-6/h2-3,5H,4H2,1H3/t5-,6+/m1/s1
