14
gdb 4393	3.82378	1.95113	1.3024	2.903	67.05	-0.2393	-0.0436	0.1957	886.7301	0.10937	-378.80446	-378.797624	-378.79668	-378.835686	25.237	
C	-0.0166820623	 1.5099750084	 0.0215218671	-0.488785
C	-0.0046891813	 0.0112922829	-0.0615951995	 0.412855
N	-0.0422917641	-0.5851595599	-1.2186214309	-0.317987
C	-0.0266819266	-1.958140943	-1.1934647882	 0.00813
C	 0.024093326	-2.7190211028	-0.0689145769	-0.229812
C	 0.0664949627	-2.0862666946	 1.2316449956	 0.409914
O	 0.1138500782	-2.6063324939	 2.3293565063	-0.3865
N	 0.0470691537	-0.6745629958	 1.1124668996	-0.366674
H	 0.8862897766	 1.8814269164	 0.5185813125	 0.14656
H	-0.0650209314	 1.9208574064	-0.9859810207	 0.164336
H	-0.8796616181	 1.8634653359	 0.5965164167	 0.146215
H	-0.0587861274	-2.4293334658	-2.172329538	 0.119691
H	 0.0344196541	-3.8007483956	-0.101381681	 0.119942
H	 0.07515565	-0.1774142386	 1.9938239175	 0.262114
96.8928	163.8359	204.2064	308.267	417.0548	492.8288	538.1379	562.6389	610.4429	737.5492	762.0724	778.7487	862.3069	921.1873	992.1756	1014.3198	1030.8075	1065.5349	1096.8137	1212.7995	1244.2894	1304.7996	1405.1899	1428.4025	1460.9616	1483.7249	1490.4171	1593.0854	1645.1196	1805.0288	3039.9636	3096.0547	3166.5389	3167.2838	3224.5653	3583.8889
CC1=NC=CC(=O)N1	Cc1nccc(=O)[nH]1	
InChI=1S/C5H6N2O/c1-4-6-3-2-5(8)7-4/h2-3H,1H3,(H,6,7,8)	InChI=1S/C5H6N2O/c1-4-6-3-2-5(8)7-4/h2-3H,1H3,(H,6,7,8)
