13
gdb 2142	3.86703	3.19558	1.85386	2.4801	54.72	-0.2526	-0.0299	0.2227	654.0994	0.101649	-344.475122	-344.468847	-344.467903	-344.505315	23.236	
O	 0.3102465542	 1.4053676995	-0.1157346567	-0.440144
C	 0.1130734545	 0.0253192057	 0.0775783187	 0.024458
C	 0.7088516341	-0.5322121074	 1.3439966138	-0.085126
C	-0.1400933742	-1.339922487	 1.9841635635	-0.073462
C	-1.4891165432	-1.4297031278	 1.3096046351	-0.366879
C	-1.3765800752	-0.3207089391	 0.262853619	 0.360432
O	-2.2660186855	 0.2922631136	-0.2682991374	-0.31278
H	-0.5048318246	 1.7330038431	-0.5219052634	 0.293787
H	 0.4885584422	-0.541962773	-0.7966891899	 0.095086
H	 1.7258633618	-0.3131588559	 1.644991425	 0.11463
H	 0.0878813904	-1.8872209282	 2.8914517941	 0.108959
H	-1.656411536	-2.3968850993	 0.814533818	 0.140631
H	-2.3464834684	-1.2642422644	 1.9708076102	 0.140406
85.6921	252.3391	274.0706	357.8707	438.9049	489.3497	582.4328	671.5011	714.3751	761.5305	785.2576	952.2741	971.5515	986.2684	1003.4318	1081.3882	1130.5278	1149.9253	1177.9572	1222.4764	1277.7356	1330.6592	1373.4966	1416.6609	1449.5165	1672.977	1851.6604	2907.6807	3017.83	3073.9227	3195.3351	3220.8585	3741.3564
OC1C=CCC1=O	O[C@H]1C=CCC1=O	
InChI=1S/C5H6O2/c6-4-2-1-3-5(4)7/h1-2,4,6H,3H2	InChI=1S/C5H6O2/c6-4-2-1-3-5(4)7/h1-2,4,6H,3H2/t4-/m0/s1
