14
gdb 1494	6.26275	1.44102	1.27609	3.6583	62.42	-0.2566	-0.0238	0.2328	937.9822	0.111771	-324.573795	-324.5657	-324.564756	-324.607477	27.757	
C	 0.21861429	 1.4115108176	-0.0718556166	-0.371206
C	-0.3578527476	 0.0173984638	 0.1876447881	-0.152357
N	 0.2569758139	-0.6495057803	 1.3251247506	-0.314433
C	 1.1710532044	-1.6521746821	 1.1843630019	 0.287372
O	 1.5262889427	-2.114355167	 0.1149044803	-0.360322
C	 1.6917485146	-2.1401816561	 2.4576628225	 0.219354
C	 2.1426480995	-2.5626041551	 3.4890974845	-0.406479
H	 1.28886771	 1.3516963461	-0.288145183	 0.137419
H	-0.2811317549	 1.8752960014	-0.9281255882	 0.122241
H	 0.0803026002	 2.0680031414	 0.7939504892	 0.113161
H	-1.4391857708	 0.0770086298	 0.357552948	 0.109016
H	-0.1896185793	-0.6327359163	-0.6731740106	 0.153295
H	 0.0676436737	-0.3134750551	 2.2560258486	 0.253701
H	 2.5497745436	-2.9468272181	 4.3924440146	 0.209238
19.0901	79.0587	150.071	230.1391	264.5158	318.1646	411.4674	479.9828	538.2361	591.246	657.866	675.5284	764.0813	774.0412	899.0005	924.8262	1071.3641	1118.1062	1172.4454	1241.2843	1323.6934	1392.2765	1410.433	1480.313	1492.0928	1501.7881	1539.9848	1758.6204	2225.9843	3036.0814	3038.8579	3099.7083	3118.4929	3129.6921	3496.563	3636.8948
CCNC(=O)C#C	CCNC(=O)C#C	
InChI=1S/C5H7NO/c1-3-5(7)6-4-2/h1H,4H2,2H3,(H,6,7)	InChI=1S/C5H7NO/c1-3-5(7)6-4-2/h1H,4H2,2H3,(H,6,7)
