14
gdb 1115	5.5419	1.84966	1.40223	0.6907	57.44	-0.2297	-0.0025	0.2272	831.5653	0.113594	-357.951284	-357.9435	-357.942555	-357.984165	27.304	
C	-0.1913095824	 1.4115319867	 0.1189017564	-0.493816
C	 0.4248678697	 0.0763672263	-0.2586886757	 0.432653
O	 1.6225521551	-0.141224618	-0.1565737679	-0.372844
N	-0.4830279542	-0.84311616	-0.7183559484	-0.333935
C	-0.282237706	-2.1835319828	-1.1176959587	 0.426014
N	 1.0265953911	-2.5548104147	-1.242452391	-0.550685
N	-1.3486770372	-2.8505916714	-1.3513984891	-0.562106
H	-0.7079597401	 1.8576454317	-0.7368974837	 0.147789
H	-0.9235736907	 1.2870249325	 0.9233511171	 0.147632
H	 0.6015107071	 2.0794907929	 0.4527099267	 0.156147
H	-1.462108891	-0.5988331697	-0.7283035687	 0.265558
H	 1.7168509775	-1.9418303275	-0.8233460803	 0.281217
H	 1.2171357191	-3.5409058872	-1.2886056829	 0.250078
H	-1.130266368	-3.7971284086	-1.6557193136	 0.206297
30.5413	98.6505	126.096	243.4653	366.2345	395.7386	436.2926	524.9685	569.5948	591.0984	665.1533	678.6489	727.902	793.4496	911.2908	984.8183	1041.9937	1054.3338	1136.1046	1142.6597	1257.3071	1388.5062	1446.2779	1464.9995	1482.8514	1504.7467	1619.5971	1740.8646	1775.0896	3046.4271	3109.9719	3167.8492	3503.1901	3508.8861	3628.2177	3698.3125
CC(=O)NC(N)=N	CC(=O)NC(=N)N	
InChI=1S/C3H7N3O/c1-2(7)6-3(4)5/h1H3,(H4,4,5,6,7)	InChI=1S/C3H7N3O/c1-2(7)6-3(4)5/h1H3,(H4,4,5,6,7)
