13
gdb 1163	3.39236	2.26298	1.92411	2.8796	56.49	-0.2561	-0.0403	0.2158	722.6594	0.097041	-344.421383	-344.413132	-344.412188	-344.453615	28.719	
C	 0.0881675078	 1.5759967347	 0.1502167922	-0.412518
C	 0.0148390003	 0.0474963423	 0.0852942095	 0.109954
O	 0.6124507777	-0.5721495815	 1.2234945422	-0.449431
C	-1.4531960725	-0.4421433572	 0.126848618	 0.159614
O	-2.399813647	 0.2320320983	-0.1655044519	-0.23535
C	 0.5924029031	-0.4762173069	-1.1574636727	 0.312687
C	 1.0708530331	-0.9257362743	-2.165089629	-0.493885
H	 1.1232973554	 1.9109623183	 0.0457201842	 0.117765
H	-0.5131139027	 2.0170492341	-0.6472088274	 0.147817
H	-0.3028708424	 1.911742896	 1.1135710125	 0.134011
H	 1.5655641156	-0.5896583596	 1.0866969861	 0.292534
H	-1.5347240513	-1.497608425	 0.4595344571	 0.105049
H	 1.492710773	-1.3163898992	-3.0586902606	 0.211754
77.0107	156.902	170.2573	207.2831	219.5438	262.5242	361.0885	387.1578	479.5469	540.638	621.2897	642.0361	670.069	739.2006	914.1224	936.4053	1001.9717	1104.3884	1157.2039	1194.0356	1346.2613	1385.181	1405.139	1480.7501	1485.1844	1847.9075	2224.3958	2928.6942	3053.9729	3133.5176	3145.8115	3497.8744	3818.7966
CC(O)(C=O)C#C	C[C@@](O)(C=O)C#C	
InChI=1S/C5H6O2/c1-3-5(2,7)4-6/h1,4,7H,2H3	InChI=1S/C5H6O2/c1-3-5(2,7)4-6/h1,4,7H,2H3/t5-/m0/s1
