19
gdb 1193	4.51654	1.65703	1.62312	2.265	63.37	-0.2538	0.0618	0.3155	880.3669	0.169345	-348.059242	-348.050232	-348.049288	-348.091844	33.189	
C	 0.0133544227	 1.5504184705	 0.1466091927	-0.392987
C	-0.0476784511	 0.0307155556	-0.0355315666	-0.185368
C	 0.6695990306	-0.4886279938	-1.2913310146	 0.378723
C	 0.0762542086	 0.0817326009	-2.5908996771	-0.424808
O	 2.0395336305	-0.1062628508	-1.170573834	-0.477861
C	 0.6081469646	-2.0241742964	-1.3141401191	-0.111258
O	 1.4567723522	-2.4618147256	-2.3747122018	-0.435929
H	 1.0497359172	 1.8960487057	 0.1218740193	 0.138955
H	-0.5401221369	 2.0786833773	-0.6354308182	 0.113647
H	-0.4217631874	 1.8383488434	 1.1084864969	 0.106319
H	 0.4175852559	-0.4505978386	 0.8329727342	 0.096376
H	-1.0924893908	-0.3035023969	-0.063134901	 0.088019
H	 0.2480362801	 1.1586429159	-2.6451777341	 0.121689
H	 0.551383216	-0.386475588	-3.4569781305	 0.125127
H	-1.0017703343	-0.1042602805	-2.6524124282	 0.103468
H	 2.5195064493	-0.6635824653	-1.7961972509	 0.281881
H	 0.9641107364	-2.4095520621	-0.3488466007	 0.09172
H	-0.4257931662	-2.3671795061	-1.4685612359	 0.088221
H	 1.6352739826	-3.3986211453	-2.2597743403	 0.294065
96.7674	143.5705	194.3045	221.1602	226.2268	269.8305	307.8022	338.8233	381.4897	411.0234	445.0104	453.0583	591.4777	753.6318	788.7556	899.0465	931.1126	956.6154	1005.0342	1040.7299	1064.6278	1086.1313	1145.2966	1186.9578	1209.1344	1259.4695	1269.7993	1336.8406	1358.1902	1395.8066	1409.7673	1417.1584	1445.9468	1474.5053	1490.6098	1500.7686	1506.4936	1510.7485	1514.5995	2986.223	3023.9403	3032.1994	3040.389	3045.4313	3062.7731	3107.0598	3111.5789	3128.4418	3133.994	3774.4528	3849.1141
CCC(C)(O)CO	CC[C@@](C)(O)CO	
InChI=1S/C5H12O2/c1-3-5(2,7)4-6/h6-7H,3-4H2,1-2H3	InChI=1S/C5H12O2/c1-3-5(2,7)4-6/h6-7H,3-4H2,1-2H3/t5-/m1/s1
