12
gdb 668	6.48448	3.75961	3.55888	1.6786	45.07	-0.2374	0.0597	0.2971	442.4333	0.096937	-306.308471	-306.30339	-306.302446	-306.33666	19.197	
O	-0.0001230174	 1.3760007148	 0.0385244348	-0.435087
C	-0.0533508399	-0.0134056473	 0.0226616912	 0.130778
C	-1.3544574934	-0.8002854621	 0.0703969808	-0.170386
C	-2.3846334023	-0.0611431155	-0.7709456294	-0.098158
O	-1.4543289978	 0.0483540324	-1.8921854349	-0.30274
C	-0.494705862	-0.7575547872	-1.1901745918	 0.029022
H	-0.3389205953	 1.6637470332	-0.8205877022	 0.296369
H	 0.7566239222	-0.4652968304	 0.5886054565	 0.108829
H	-1.5523398777	-1.5983103399	 0.7732490438	 0.102001
H	-3.2472098456	-0.6693608874	-1.0598722136	 0.117332
H	-2.7157118787	 0.9189729202	-0.4104441595	 0.11597
H	 0.0521556779	-1.4993437108	-1.7616035757	 0.106072
229.0305	262.711	430.999	501.3362	656.3906	731.8009	797.8679	805.0335	928.5002	956.558	970.1988	1016.4724	1034.1794	1051.5959	1085.8284	1108.7945	1165.8056	1181.2516	1250.2966	1312.8223	1317.8507	1378.2726	1451.3123	1512.4696	3037.731	3090.9348	3157.1421	3174.4418	3205.0674	3747.9481
OC1C2COC12	O[C@H]1[C@H]2CO[C@@H]12	
InChI=1S/C4H6O2/c5-3-2-1-6-4(2)3/h2-5H,1H2	InChI=1S/C4H6O2/c5-3-2-1-6-4(2)3/h2-5H,1H2/t2-,3+,4-/m1/s1
