12
gdb 519	14.89645	1.24544	1.24233	1.4538	51.62	-0.2515	0.0292	0.2807	921.7788	0.09418	-306.313706	-306.306114	-306.305169	-306.345991	24.334	
O	 0.0220272184	 1.2343078247	 0.6850342671	-0.408575
C	-0.0382657858	 0.0898964177	-0.1577748244	-0.214706
C	-1.3809599659	-0.4726238986	-0.134119903	 0.096529
C	-2.4810321282	-0.9592836511	-0.1262652257	 0.096527
C	-3.8239921391	-1.5216511763	-0.1304020433	-0.214706
O	-3.8683170649	-2.6751422788	 0.7009422149	-0.408575
H	 0.9258899027	 1.5642867958	 0.65501552	 0.289475
H	 0.2254832546	 0.3463392315	-1.1971019042	 0.116075
H	 0.6743956141	-0.6852891532	 0.1680731901	 0.121202
H	-4.5302266731	-0.750117773	 0.2173691447	 0.121202
H	-4.1075458256	-1.766833791	-1.1672289592	 0.116075
H	-4.7726228173	-3.0048676576	 0.6845949931	 0.289475
38.7771	126.6208	130.4332	227.1613	227.5788	303.9957	343.1144	501.8187	571.1248	758.083	1019.7246	1027.7557	1035.0822	1058.7023	1142.2491	1242.0735	1248.868	1257.4609	1261.4905	1458.0546	1460.9868	1499.5173	1500.1639	2376.3013	2962.3596	2962.7404	2981.2798	2981.773	3817.3647	3817.4369
OCC#CCO	OCC#CCO	
InChI=1S/C4H6O2/c5-3-1-2-4-6/h5-6H,3-4H2	InChI=1S/C4H6O2/c5-3-1-2-4-6/h5-6H,3-4H2
