14
gdb 3352	5.05043	3.20186	2.36738	1.6316	56.24	-0.2434	0.0202	0.2636	582.7238	0.116148	-324.579188	-324.573788	-324.572844	-324.60855	20.542	
C	-0.0336483677	 1.5122940136	-0.275059677	-0.242764
C	 1.463118768	 1.5818331097	 0.1701455802	-0.222341
C	 1.3982868923	 0.0895826394	 0.6001485788	-0.004685
N	 1.263482397	-0.1198394697	 2.0495404225	-0.264551
C	 0.0303910876	-0.3335591824	 2.2562373608	 0.11479
O	-0.8515374858	-0.3383169778	 1.2221910323	-0.229612
C	-0.0624309197	 0.0021447384	 0.0594301575	 0.089958
H	-0.7278808011	 2.0929779612	 0.336092479	 0.116352
H	-0.216787939	 1.7474947272	-1.3259853947	 0.108677
H	 2.1589796976	 1.7723230944	-0.6503791634	 0.105705
H	 1.6876406851	 2.268014465	 0.9887229097	 0.115094
H	 2.1673977842	-0.5696354211	 0.1911002504	 0.082721
H	-0.4191299752	-0.5312455629	 3.2232654328	 0.140618
H	-0.3253297833	-0.688888475	-0.7419919588	 0.090039
85.0189	305.5452	390.2807	574.8067	651.8602	725.3773	767.5267	851.0289	855.0255	889.2676	920.1422	950.2278	966.3368	999.3604	1048.6168	1097.8928	1109.4252	1133.4979	1207.5563	1224.621	1251.6669	1278.6079	1282.2408	1306.3298	1320.9996	1358.4202	1467.5293	1484.7783	1687.4855	3066.7302	3070.9434	3079.5296	3106.8361	3117.8242	3134.9302	3214.9002
C1CC2N=COC12	C1C[C@H]2N=CO[C@@H]12	
InChI=1S/C5H7NO/c1-2-5-4(1)6-3-7-5/h3-5H,1-2H2	InChI=1S/C5H7NO/c1-2-5-4(1)6-3-7-5/h3-5H,1-2H2/t4-,5+/m1/s1
