12
gdb 3999	3.70937	1.36491	1.00389	4.0964	65.92	-0.2614	-0.054	0.2074	1060.7387	0.081305	-377.45374	-377.445525	-377.44458	-377.486899	28.613	
O	-0.0591826735	 1.4187690035	 0.0102100776	-0.374727
N	 0.0720060045	 0.0469079896	 0.0014391318	-0.132
C	-1.0573399938	-0.5628441037	 0.0089941581	 0.180706
C	-1.0395636425	-2.081483429	 0.0004625781	-0.423054
C	 0.2976154908	-2.6701154494	-0.0152766855	 0.280062
N	 1.3296468387	-3.1871445196	-0.0277608153	-0.304407
C	-2.3345682212	 0.0617620269	 0.0247310866	 0.315107
C	-3.4413243469	 0.5346051019	 0.0379981356	-0.430356
H	 0.8582310685	 1.717115215	 0.0030229091	 0.320135
H	-1.5808465201	-2.4533164375	 0.8791699246	 0.176522
H	-1.5972027518	-2.4436713682	-0.872028412	 0.176527
H	-4.4088661527	 0.9739676704	 0.0497369314	 0.215485
52.5214	119.2757	149.9498	247.7368	283.3473	293.7429	386.7901	430.4198	465.8599	495.9752	621.3986	654.8115	665.2505	685.9341	826.3145	948.0787	957.7188	1063.6925	1198.4059	1228.7986	1351.4315	1409.705	1457.2529	1690.6552	2223.6596	2375.8592	3037.8588	3067.8792	3497.4623	3800.8313
ON=C(CC#N)C#C	ON=C(CC#N)C#C	
InChI=1S/C5H4N2O/c1-2-5(7-8)3-4-6/h1,8H,3H2	InChI=1S/C5H4N2O/c1-2-5(7-8)3-4-6/h1,8H,3H2
