17
gdb 3346	3.85605	3.15326	2.10159	1.7664	62.87	-0.257	0.0863	0.3433	671.1876	0.151252	-309.722894	-309.716893	-309.715949	-309.752474	23.783	
C	 0.0092027249	 1.5244264233	 0.1071168404	-0.192435
C	 1.4367947686	 2.0721712075	-0.0156279722	-0.198674
C	 2.000572091	 1.8087367471	-1.4197930035	-0.226004
C	 1.857269742	 0.3591522525	-1.8271785469	 0.068589
O	 2.2580343124	-0.6129213495	-0.8579376055	-0.258359
C	 0.8613798332	-0.513358066	-1.1792040226	 0.051744
C	-0.0443697747	-0.0036475568	-0.0706788619	-0.220043
H	-0.4267524632	 1.7975605848	 1.0739237674	 0.094352
H	-0.6166440064	 1.9998311306	-0.6603402366	 0.093777
H	 1.4505987086	 3.1477615027	 0.1887366024	 0.091665
H	 2.0829983108	 1.594346636	 0.7290665598	 0.113241
H	 1.4691962517	 2.4236267493	-2.1593967108	 0.098603
H	 3.057129533	 2.0979913722	-1.4743356666	 0.103972
H	 2.16607582	 0.1220116206	-2.8469953614	 0.081597
H	 0.490284991	-1.3710814859	-1.7414394629	 0.086449
H	 0.2565615281	-0.5040364236	 0.8580071329	 0.115035
H	-1.0734385408	-0.3201428048	-0.2743052324	 0.09649
143.3441	269.5542	356.2737	371.128	438.0778	541.6501	644.9284	774.1856	786.5927	826.7151	851.3433	894.4784	906.0771	986.71	1003.3522	1044.046	1053.6423	1078.9007	1099.8369	1169.6217	1191.8515	1211.5705	1274.9749	1290.8688	1303.1885	1353.0284	1370.0785	1377.8322	1389.4465	1398.7684	1463.0573	1478.0941	1485.8503	1488.9927	1500.3333	3014.7405	3016.461	3029.7578	3039.6806	3056.4548	3065.0054	3074.1243	3085.5793	3087.811	3103.7423
C1CCC2OC2C1	C1CC[C@H]2O[C@H]2C1	
InChI=1S/C6H10O/c1-2-4-6-5(3-1)7-6/h5-6H,1-4H2	InChI=1S/C6H10O/c1-2-4-6-5(3-1)7-6/h5-6H,1-4H2/t5-,6+
