19
gdb 4035	3.80794	1.07339	1.01141	1.7157	71.44	-0.2452	0.0095	0.2547	1248.7816	0.16182	-402.163413	-402.153172	-402.152228	-402.198982	35.823	
C	-0.1623573102	 1.5208518419	-0.0295073712	-0.378974
C	-0.1386335013	-0.0072058269	-0.123621812	-0.206238
C	 0.7970924549	-0.5205479656	-1.2297657941	 0.042248
O	 2.137852021	-0.0668208669	-1.0472634759	-0.430102
C	 0.7502086587	-2.0299585696	-1.3699910826	 0.370923
C	 1.3330072448	-2.9177268282	-0.3043290928	-0.476266
N	 0.2020778616	-2.4663339076	-2.4380883409	-0.17377
O	 0.191516994	-3.8707327184	-2.4795288015	-0.400671
H	 0.842994365	 1.9172566023	 0.1349137009	 0.124807
H	-0.5436119578	 1.962859854	-0.9562222172	 0.120422
H	-0.8041174133	 1.8549890112	 0.7909855933	 0.111194
H	 0.1717565277	-0.4372477261	 0.8398800141	 0.088085
H	-1.1457653108	-0.3930925196	-0.3201608408	 0.111819
H	 0.4793423632	-0.1009735138	-2.1888940995	 0.104756
H	 2.4074225712	-0.2800476395	-0.1472223864	 0.280619
H	 1.7221649952	-2.3461501517	 0.5412201097	 0.101341
H	 0.5779633462	-3.6188981529	 0.0642183442	 0.15004
H	 2.1450115535	-3.5232996847	-0.7188517871	 0.153406
H	-0.2286857936	-4.0443334379	-3.32843368	 0.306361
51.4078	70.1011	96.658	147.5117	203.9343	237.8564	246.2835	285.3046	301.5064	366.9093	381.2615	445.8034	519.2059	585.7074	678.3576	777.6366	816.0612	896.0948	972.3562	993.695	1021.1466	1037.7595	1066.0403	1096.0983	1117.7025	1250.1326	1270.5277	1297.7597	1330.8927	1373.1421	1395.5989	1403.6445	1406.3464	1415.2208	1468.2213	1479.5879	1490.1589	1494.1281	1507.7762	1728.2902	3005.6585	3039.8085	3044.43	3059.5778	3079.3608	3105.4938	3105.9505	3121.6921	3123.6943	3801.9984	3819.2297
CCC(O)C(C)=NO	CC[C@@H](O)C(=NO)C	
InChI=1S/C5H11NO2/c1-3-5(7)4(2)6-8/h5,7-8H,3H2,1-2H3	InChI=1S/C5H11NO2/c1-3-5(7)4(2)6-8/h5,7-8H,3H2,1-2H3/t5-/m1/s1
