17
gdb 4160	2.90128	1.65838	1.11245	0.7256	69.13	-0.2451	-0.0014	0.2436	1060.4499	0.140379	-400.93151	-400.922959	-400.922015	-400.964951	30.55	
C	 0.2348703558	 1.2594768193	-0.2352677899	-0.245943
O	-0.1972483305	-0.0148514601	 0.2058691732	-0.237562
C	 0.6136313821	-0.563558588	 1.2039678114	 0.061074
C	 0.1606876504	-1.9762897928	 1.6690270819	-0.257687
C	 1.6170474967	-2.5103269165	 1.4892640458	-0.324751
C	 1.9507014969	-1.1963944818	 0.8121057559	 0.390848
N	 2.8865945739	-0.7453703298	 0.0890945354	-0.233887
O	 3.9055313512	-1.70149168	-0.0792254427	-0.390682
H	 1.2356036153	 1.2123693126	-0.6817982111	 0.135726
H	-0.4837212731	 1.5973337405	-0.9856451423	 0.124402
H	 0.252625588	 1.9844357538	 0.5937998639	 0.10175
H	 0.7346273549	 0.1447632927	 2.0413248486	 0.076928
H	-0.2719925131	-2.0404781784	 2.668003348	 0.106962
H	-0.5339759884	-2.4018885065	 0.9428264679	 0.126752
H	 2.1630520908	-2.6613268781	 2.425625561	 0.126898
H	 1.7474334115	-3.4024558177	 0.8722021046	 0.132782
H	 4.5264678177	-1.2384072492	-0.6520144815	 0.306389
64.2398	112.8693	150.4809	200.3689	220.3246	259.4167	348.9817	404.6397	449.4319	491.172	610.2629	683.6623	761.1378	806.4078	930.2919	934.0729	979.9536	1022.688	1059.9621	1106.6852	1141.6753	1167.3422	1186.24	1210.7573	1221.1183	1245.8795	1268.874	1276.7746	1369.0081	1401.2689	1460.2189	1478.7931	1484.1157	1489.121	1513.6738	1778.0116	2954.862	2982.3401	3058.8832	3060.0498	3085.0291	3107.6129	3120.4277	3145.0629	3815.1043
COC1CCC1=NO	CO[C@H]1CCC1=NO	
InChI=1S/C5H9NO2/c1-8-5-3-2-4(5)6-7/h5,7H,2-3H2,1H3	InChI=1S/C5H9NO2/c1-8-5-3-2-4(5)6-7/h5,7H,2-3H2,1H3/t5-/m0/s1
