14
gdb 4300	4.04684	1.85166	1.2804	2.4113	67.09	-0.2399	-0.0411	0.1989	898.9725	0.109425	-378.802574	-378.795805	-378.79486	-378.833579	25.218	
C	 0.0267852408	 1.502635852	 0.0153326707	-0.463992
C	-0.0201092834	 0.002581284	 0.0099922242	 0.333787
C	-1.1817762265	-0.6938837464	-0.1509282384	-0.285263
C	-1.2021707165	-2.1396460808	-0.1513143607	 0.425771
O	-2.1549080703	-2.8833400222	-0.2828633114	-0.387197
N	 0.1000459198	-2.6706271389	 0.0310463051	-0.335466
C	 1.2059911826	-1.9057538656	 0.1837107669	 0.104347
N	 1.207991572	-0.6116859607	 0.1819109815	-0.328417
H	 0.6908060994	 1.8585981624	-0.7794870127	 0.145099
H	-0.9632160518	 1.9412771986	-0.1227294218	 0.126881
H	 0.4485222022	 1.8594381916	 0.9608492504	 0.145136
H	-2.132230628	-0.1926451109	-0.2842656842	 0.113996
H	 0.1621361997	-3.680262724	 0.0414497164	 0.267825
H	 2.1418062299	-2.4447685893	 0.3148854741	 0.137493
130.5774	181.0079	186.277	316.2831	431.2437	476.7749	528.1112	560.6084	606.9801	733.4171	774.4951	782.0237	886.2888	915.5754	965.8973	975.8936	1036.166	1065.3978	1153.0256	1183.4183	1228.0279	1356.5981	1409.3874	1425.8144	1466.7438	1470.9905	1480.4146	1592.7844	1661.5926	1803.5792	3041.1369	3099.0131	3136.9288	3159.4182	3213.804	3596.1975
CC1=CC(=O)NC=N1	Cc1cc(=O)[nH]cn1	
InChI=1S/C5H6N2O/c1-4-2-5(8)7-3-6-4/h2-3H,1H3,(H,6,7,8)	InChI=1S/C5H6N2O/c1-4-2-5(8)7-3-6-4/h2-3H,1H3,(H,6,7,8)
