15
gdb 811	4.70096	2.01823	1.50599	1.1445	61.33	-0.2291	0.004	0.2331	807.1883	0.124472	-341.767606	-341.760258	-341.759314	-341.798909	26.634	
C	 0.060305614	 1.5748624827	-0.0219354712	-0.376756
C	 0.0159424685	 0.0580519057	 0.0797232206	-0.036127
N	 0.9407555652	-0.67208751	-0.8492000361	-0.329403
C	 1.4806000226	-1.5135706035	 0.2590823622	-0.257837
C	 0.7425638849	-0.6176302951	 1.2272224289	 0.403927
N	 0.718295687	-0.3987159536	 2.4707358464	-0.235956
O	 1.5957172305	-1.2628717363	 3.1528792608	-0.392859
H	 1.0919091759	 1.9302393975	 0.0416373059	 0.12467
H	-0.3610503317	 1.9070599337	-0.9762022409	 0.115053
H	-0.5191960863	 2.0276766855	 0.7886147962	 0.125362
H	-1.0257018481	-0.2921671693	 0.0126589228	 0.085008
H	 0.4611994464	-1.2028766068	-1.5673486136	 0.219722
H	 1.1282636233	-2.5541349537	 0.2839094476	 0.116647
H	 2.5733821524	-1.5174954593	 0.3334449178	 0.130897
H	 1.4891049854	-0.9799292175	 4.0673661526	 0.30765
109.4919	154.1844	192.5539	232.3978	307.1542	364.4862	455.5615	495.1054	558.6585	658.5064	760.6205	832.0548	928.4259	957.8522	975.2614	1018.0699	1048.3374	1066.4441	1121.3447	1144.7006	1189.1902	1241.3721	1318.1292	1358.2892	1372.7023	1403.2211	1412.1448	1485.5482	1491.4807	1493.6435	1805.304	2980.3683	3008.9731	3039.1801	3064.0134	3110.3868	3125.9686	3537.2699	3818.3557
CC1NCC1=NO	C[C@H]1NCC1=NO	
InChI=1S/C4H8N2O/c1-3-4(6-7)2-5-3/h3,5,7H,2H2,1H3	InChI=1S/C4H8N2O/c1-3-4(6-7)2-5-3/h3,5,7H,2H2,1H3/t3-/m1/s1
