16
gdb 1469	6.755	1.28013	1.15632	4.9239	61.15	-0.2819	0.0339	0.3158	993.6555	0.135494	-325.793166	-325.784794	-325.78385	-325.825959	28.99	
C	-0.0413507717	 1.5746197298	 0.0510546521	-0.397321
C	-0.0331883528	 0.0439937577	 0.0009271477	 0.031973
C	-1.4514684606	-0.5305261949	 0.0166151372	-0.079962
O	-2.0709414518	-0.128119034	 1.2250734519	-0.419846
C	 0.7142292654	-0.4939802633	-1.2410825316	-0.349903
C	 2.1219861444	-0.1047857431	-1.2718395675	 0.265869
N	 3.2350089623	 0.2059847625	-1.2831482106	-0.311066
H	 0.975503442	 1.9741098821	 0.0952299968	 0.138332
H	-0.5304552414	 1.9912303178	-0.8381995007	 0.109939
H	-0.5908581796	 1.91661108	 0.9298045398	 0.142431
H	 0.4777167222	-0.3363159398	 0.8937495605	 0.107408
H	-2.0069755628	-0.1609200924	-0.8623585986	 0.087104
H	-1.407431392	-1.6294443561	-0.0603668363	 0.086626
H	-2.9822100144	-0.4342701346	 1.2176766966	 0.291549
H	 0.6625537522	-1.5887266715	-1.2738890445	 0.148144
H	 0.2353925186	-0.1268986702	-2.157725943	 0.148723
71.0089	112.6771	140.3227	235.6769	238.0257	263.8211	332.8237	395.9978	417.3794	428.013	579.6673	837.0714	888.1821	918.2342	938.3062	972.9349	1080.8377	1097.5535	1129.4989	1169.3046	1224.7315	1255.3593	1278.2124	1308.2115	1361.2594	1381.0019	1408.8848	1462.6683	1467.3044	1494.5146	1505.4415	1521.0396	2361.9737	2952.0307	2981.2573	3030.4726	3031.6113	3045.3171	3072.9038	3105.8414	3140.8296	3836.8815
CC(CO)CC#N	C[C@@H](CO)CC#N	
InChI=1S/C5H9NO/c1-5(4-7)2-3-6/h5,7H,2,4H2,1H3	InChI=1S/C5H9NO/c1-5(4-7)2-3-6/h5,7H,2,4H2,1H3/t5-/m1/s1
