16
gdb 2305	5.69991	1.38633	1.21105	1.2623	70.74	-0.2317	0.0455	0.2773	1016.8428	0.135527	-288.594527	-288.586261	-288.585317	-288.628359	28.373	
C	 0.1023915852	 1.5197030745	 0.053301448	-0.499323
C	 0.0484315506	 0.0653183407	 0.038147926	 0.076844
C	 0.0030429975	-1.1386103151	 0.0387656503	 0.142629
C	-0.0312528178	-2.5748931196	 0.0004043964	-0.253173
N	-0.5274257438	-3.2914191537	 1.2054205992	-0.324421
C	-1.3083364933	-3.3605851672	-0.0339374166	 0.020155
C	-2.6641660031	-2.7027365766	-0.0241700919	-0.395534
H	 1.1279591188	 1.8810977235	-0.0816082446	 0.147738
H	-0.5094350793	 1.9527448165	-0.746060744	 0.146454
H	-0.2656387447	 1.9184511051	 1.0051684614	 0.150912
H	 0.8098339935	-3.0280667943	-0.5216577756	 0.100932
H	 0.0160913369	-4.1410858203	 1.3348784522	 0.23151
H	-1.2529973022	-4.2899427604	-0.6006030192	 0.083419
H	-2.6256985487	-1.7576363706	 0.5214100862	 0.138335
H	-3.003902081	-2.5011466246	-1.045680787	 0.115586
H	-3.4025839784	-3.3512332578	 0.4590102991	 0.117936
20.9934	95.1381	127.6144	190.3702	241.6041	314.8136	373.2556	401.844	508.9957	572.5641	733.6907	775.7052	859.9244	918.2613	980.8186	1007.6638	1052.2049	1053.1023	1068.7478	1127.5093	1156.6626	1206.6675	1249.3723	1268.4813	1392.7861	1414.1662	1422.8282	1453.9338	1477.1392	1478.7641	1488.1393	1495.6767	2370.1564	3025.488	3037.7554	3084.8494	3087.5044	3099.601	3101.9195	3116.7092	3136.7519	3499.3641
CC#CC1NC1C	CC#C[C@H]1N[C@H]1C	
InChI=1S/C6H9N/c1-3-4-6-5(2)7-6/h5-7H,1-2H3	InChI=1S/C6H9N/c1-3-4-6-5(2)7-6/h5-7H,1-2H3/t5-,6+/m0/s1
