14
gdb 653	7.03621	3.45239	3.19279	1.4563	53.19	-0.2526	0.0751	0.3278	484.8841	0.121175	-270.375081	-270.369961	-270.369017	-270.403214	20.256	
O	 0.2277497617	 1.3888593239	-0.1749742528	-0.448994
C	 0.0446571651	 0.0104879217	-0.0317042728	 0.203724
C	 0.0025944733	-0.6790312178	 1.3706732006	-0.083407
C	-1.439313087	-0.1101893499	 1.5389906837	-0.242854
C	-1.3773417858	-0.630859588	 0.0706358263	-0.083399
C	-0.6537041989	-1.8839346558	 0.639376862	-0.211352
H	-0.3419333273	 1.8524730328	 0.4471143634	 0.28208
H	 0.7145819325	-0.4545076266	-0.7600372251	 0.080811
H	 0.7937054862	-0.7122930894	 2.1211924536	 0.072034
H	-2.0987865445	-0.6562097521	 2.2187657586	 0.096326
H	-1.5556157006	 0.9664929841	 1.702327174	 0.075133
H	-2.1738620406	-0.6086985146	-0.6745522232	 0.072035
H	-0.0220421072	-2.4489859642	-0.0520419856	 0.092113
H	-1.261355587	-2.5457907041	 1.2598509473	 0.095748
242.3291	332.487	381.7973	534.3982	604.1479	754.6036	800.3229	853.9981	882.7873	896.5038	904.4302	999.6033	1016.774	1019.2362	1075.6889	1084.398	1114.2936	1140.1217	1167.4221	1186.6733	1211.1123	1241.9163	1251.4696	1276.0065	1286.129	1455.1522	1507.144	1546.9874	3038.7057	3054.6772	3080.1512	3097.7704	3101.5415	3109.2053	3123.1856	3816.6984
OC1C2CC1C2	O[C@H]1[C@H]2C[C@@H]1C2	
InChI=1S/C5H8O/c6-5-3-1-4(5)2-3/h3-6H,1-2H2	InChI=1S/C5H8O/c6-5-3-1-4(5)2-3/h3-6H,1-2H2/t3-,4+,5-
