10
gdb 42	14.79671	5.6956	4.58846	0.0075	31.42	-0.2594	0.0584	0.3179	297.8398	0.085172	-230.183076	-230.177723	-230.176779	-230.211195	16.837	
O	-0.0141873452	 1.4264224166	-0.0542365107	-0.42367
C	-0.003918394	 0.0071771432	 0.0349606216	-0.064049
C	-1.4231701908	-0.5556060013	-0.0125663926	-0.064037
O	-2.1122941316	-0.1056387482	-1.1722831277	-0.423669
H	-0.1898788211	 1.6415470511	-0.9755514801	 0.283356
H	 0.5965950414	-0.4331542952	-0.7740909498	 0.0965
H	 0.4731111572	-0.2490373319	 0.9874721596	 0.107862
H	-1.394948591	-1.6497527924	-0.0628318813	 0.107862
H	-1.9649741719	-0.2721691543	 0.9013197201	 0.096497
H	-2.359259913	 0.8094439625	-1.0061459692	 0.28335
76.5151	149.3748	316.1843	505.8235	532.5295	870.3558	876.6631	1045.1048	1053.4694	1116.1618	1200.2034	1245.2124	1393.7745	1400.2924	1402.7471	1412.2916	1489.6311	1496.1831	2998.9079	3005.5406	3073.897	3078.4301	3823.0092	3823.8243
OCCO	OCCO	
InChI=1S/C2H6O2/c3-1-2-4/h3-4H,1-2H2	InChI=1S/C2H6O2/c3-1-2-4/h3-4H,1-2H2
