13
gdb 850	7.42232	2.02384	1.59668	2.4064	56.9	-0.1699	0.0513	0.2213	732.6467	0.103242	-340.652252	-340.645531	-340.644587	-340.682369	25.359	
N	 0.0846238995	 1.3738168886	 0.1534063605	-0.593832
C	-0.0683560836	-0.0027905493	 0.0597849467	 0.406002
C	-1.1576020726	-0.8232903322	 0.0751035161	-0.345254
C	-0.6330942472	-2.1652790163	 0.0392976008	 0.252247
N	-1.4103067674	-3.3302697176	 0.1192571149	-0.605793
C	 0.7210082598	-2.0524197482	-0.0033439185	-0.119353
O	 1.0759101598	-0.7094821797	 0.017218252	-0.182537
H	 0.9294376026	 1.6985676434	-0.2996213223	 0.253789
H	-0.7209209606	 1.8823571881	-0.1833114381	 0.253281
H	-2.1938916811	-0.5291023982	 0.1257938644	 0.087324
H	-2.2693855992	-3.257575636	-0.4111069734	 0.241279
H	-0.907924124	-4.1565747828	-0.1787477969	 0.240314
H	 1.5369000941	-2.7521369699	-0.033325296	 0.112533
177.8038	201.1537	234.4212	307.6877	360.8731	453.1883	566.0137	597.7419	623.978	666.1566	711.2559	722.3832	768.1785	775.7809	966.7852	1003.0129	1085.5968	1099.4573	1155.2169	1211.9471	1277.5332	1380.0998	1481.2615	1606.7174	1638.9472	1659.8896	1685.4691	3254.9158	3294.8171	3532.6965	3546.9106	3621.9494	3648.2877
NC1=CC(N)=CO1	Nc1cc(N)co1	
InChI=1S/C4H6N2O/c5-3-1-4(6)7-2-3/h1-2H,5-6H2	InChI=1S/C4H6N2O/c5-3-1-4(6)7-2-3/h1-2H,5-6H2
