12
gdb 182	9.72664	2.54748	2.08411	1.2383	49.95	-0.23	0.0026	0.2326	576.9778	0.096619	-302.472397	-302.466506	-302.465561	-302.501719	20.934	
O	-0.1345068417	 1.345965186	 0.0691165839	-0.394281
N	 0.0358286092	-0.0507422684	 0.0383449524	-0.22164
C	-1.0796690631	-0.6381482072	-0.0344513313	 0.40883
C	-2.5413811798	-0.2582719661	-0.1310991874	-0.253653
N	-2.844818973	-1.6925192518	-0.4193215904	-0.316761
C	-1.4412004427	-2.1050491484	-0.1089831343	-0.247956
H	 0.7750515542	 1.6606496279	 0.1067930333	 0.308452
H	-2.9482121614	 0.1364382441	 0.8101196115	 0.118292
H	-2.8114254492	 0.4295367634	-0.9397433157	 0.132045
H	-3.5296701031	-2.0940957697	 0.2100479094	 0.22338
H	-0.9648296682	-2.6907845598	-0.9026124956	 0.128238
H	-1.3088893413	-2.6351741199	 0.8441735242	 0.115054
120.4761	213.205	275.8589	359.4924	470.7993	526.586	687.5759	759.4298	881.9712	932.0029	963.4864	997.2716	1009.0463	1084.1293	1092.2361	1178.978	1180.99	1259.8387	1328.6092	1374.499	1411.6155	1480.673	1503.2052	1807.1334	3006.6261	3013.4588	3063.4774	3064.7703	3544.9002	3818.566
ON=C1CNC1	ON=C1CNC1	
InChI=1S/C3H6N2O/c6-5-3-1-4-2-3/h4,6H,1-2H2	InChI=1S/C3H6N2O/c6-5-3-1-4-2-3/h4,6H,1-2H2
