16
gdb 2935	6.27444	1.8645	1.55897	1.4447	60.92	-0.2467	0.0231	0.2697	806.5905	0.13813	-325.796862	-325.78992	-325.788975	-325.828269	24.696	
C	-0.0231486347	 1.5392743759	-0.0464017696	-0.381274
C	 0.0594314352	 0.0125719242	 0.0019985047	-0.175427
C	 0.7276985079	-0.5158377779	 1.2760949603	 0.031245
C	 0.7954084967	-2.0666619217	 1.3514077611	-0.125618
O	 2.2047330296	-2.3581323144	 1.5215139312	-0.221301
C	 2.8212770392	-1.1531353811	 1.4871516715	 0.123611
N	 2.1428797608	-0.0917324884	 1.3648405821	-0.269995
H	 0.9739064669	 1.9804277909	 0.0269670763	 0.143015
H	-0.4853785148	 1.8788723137	-0.9781819906	 0.109187
H	-0.6226583107	 1.9279117923	 0.7844754141	 0.111411
H	-0.9470614642	-0.4214553799	-0.0653781319	 0.093603
H	 0.6209461087	-0.3625717557	-0.8632874256	 0.100139
H	 0.1969738608	-0.1054083191	 2.1448116355	 0.086436
H	 0.2552550269	-2.4938302964	 2.19964031	 0.119799
H	 0.4568605935	-2.5523360428	 0.4301761927	 0.115023
H	 3.9012469082	-1.2048242597	 1.5746724684	 0.140147
65.8025	116.6053	205.9592	240.3595	362.689	396.0265	571.208	709.4159	782.3319	838.3314	881.0915	951.7543	963.1049	966.7159	978.8378	1009.8174	1078.4986	1124.1591	1134.7346	1168.1079	1224.4025	1283.0431	1310.4105	1323.8149	1338.8275	1379.0299	1390.1712	1410.12	1481.4075	1495.9606	1509.2019	1517.5158	1708.8411	3013.5716	3017.9686	3036.6993	3047.0938	3055.6226	3100.6894	3102.4319	3127.1861	3212.4068
CCC1COC=N1	CC[C@H]1COC=N1	
InChI=1S/C5H9NO/c1-2-5-3-7-4-6-5/h4-5H,2-3H2,1H3	InChI=1S/C5H9NO/c1-2-5-3-7-4-6-5/h4-5H,2-3H2,1H3/t5-/m0/s1
