13
gdb 3379	5.32935	2.42306	2.20789	3.2387	57.49	-0.2584	0.0084	0.2668	625.5682	0.103421	-303.460335	-303.45451	-303.453565	-303.489897	21.68	
N	 0.0191244461	-1.1598936344	-0.0132386728	-0.343135
C	 0.0205389374	-0.0037270013	 0.0289588221	 0.305331
C	 0.027924179	 1.4358979359	 0.0765388792	-0.156396
C	 0.5162240965	 2.1896892522	 1.262423667	-0.019678
C	 1.6285973299	 1.4496545209	 1.9980540287	-0.259009
C	 2.3717253105	 1.4290890867	 0.6354033783	-0.162992
N	 1.2800491656	 2.2298292451	-0.0402731407	-0.139619
H	-0.7822489517	 1.8938957893	-0.4830803152	 0.143525
H	-0.041681619	 3.0457840967	 1.6286713078	 0.112254
H	 2.1268785965	 2.0714031297	 2.7427844217	 0.123118
H	 1.3599805312	 0.4923641309	 2.4506615727	 0.132937
H	 3.2913085149	 2.0149108939	 0.6252889446	 0.125433
H	 2.554860383	 0.4559732344	 0.1738546465	 0.13823
150.7554	174.653	322.1351	398.9871	564.247	589.045	752.3949	767.4804	783.8611	799.5454	898.0958	959.4944	971.4258	1009.4672	1054.3298	1061.9258	1125.2022	1176.9532	1217.7664	1221.2567	1268.7949	1291.9831	1349.4148	1394.425	1485.6907	1506.5999	2349.7569	3074.3372	3079.3062	3126.4214	3143.074	3158.9831	3168.5921
N#CC1C2CCN12	N#C[C@H]1[C@H]2CCN12	
InChI=1S/C5H6N2/c6-3-5-4-1-2-7(4)5/h4-5H,1-2H2	InChI=1S/C5H6N2/c6-3-5-4-1-2-7(4)5/h4-5H,1-2H2/t4-,5+,7?/m1/s1
