14
gdb 675	6.05816	4.41757	3.28824	1.5611	52.46	-0.2482	0.0925	0.3407	464.1143	0.122247	-270.422403	-270.417487	-270.416543	-270.450398	19.082	
C	-0.0091708439	 1.5094887905	 0.0158938759	-0.281318
C	 1.3113670171	 0.78270775	-0.0003111661	-0.045363
C	 1.9419985213	 0.525411916	 1.3564617577	-0.0868
O	 0.8847422872	 0.0519753916	 2.1873367303	-0.253521
C	-0.0362078026	-0.6669675231	 1.3704780705	-0.0868
C	 0.0166615546	 0.0023137555	 0.0088623842	-0.045362
H	-0.3061353509	 2.0129222383	 0.9310215813	 0.121782
H	-0.315355552	 2.0067232363	-0.8976075757	 0.109715
H	 1.9477875059	 0.8277898437	-0.8759175173	 0.087681
H	 2.7446298974	-0.2249944822	 1.2638609162	 0.088905
H	 2.3571861769	 1.4155605883	 1.8412147134	 0.107247
H	 0.2515602853	-1.7277119346	 1.2815250761	 0.088905
H	-1.0121304158	-0.6153219406	 1.8650876921	 0.107247
H	-0.3294822904	-0.5448525098	-0.8597822086	 0.087681
247.6926	317.7595	389.9306	647.7199	717.9708	774.8595	826.7761	883.0443	925.5143	930.7417	966.5598	1005.9989	1066.902	1078.3739	1086.1843	1118.302	1119.6763	1123.4195	1198.3292	1221.6628	1255.4819	1328.6442	1358.4232	1359.7614	1410.2419	1483.8783	1510.5708	1523.2008	2965.1637	2971.3253	3063.5662	3066.4426	3128.8204	3180.4077	3188.1228	3218.7248
C1C2COCC12	C1[C@H]2COC[C@@H]12	
InChI=1S/C5H8O/c1-4-2-6-3-5(1)4/h4-5H,1-3H2	InChI=1S/C5H8O/c1-4-2-6-3-5(1)4/h4-5H,1-3H2/t4-,5+
