13
gdb 365	9.70719	2.14704	1.81406	1.6419	46.49	-0.2466	0.015	0.2616	669.5959	0.107439	-323.652284	-323.644911	-323.643967	-323.684119	23.834	
C	 0.0072614174	 1.3728400199	-0.0059698529	-0.237344
O	-0.0487852493	-0.0576830873	 0.0719779351	-0.226652
C	-1.2785443183	-0.5968070889	-0.0311815243	 0.416938
O	-2.2873704197	 0.046196393	-0.1795561399	-0.359456
C	-1.2164182845	-2.1194676924	 0.0649272845	-0.272202
N	-2.496549262	-2.7965385515	-0.0352314285	-0.485749
H	 1.060518511	 1.6354452007	 0.0932840628	 0.134178
H	-0.3856929796	 1.7223684175	-0.9641086267	 0.140676
H	-0.5775664467	 1.8259198998	 0.7985960892	 0.140646
H	-0.5400673644	-2.4787722821	-0.7196870822	 0.138786
H	-0.7293047341	-2.377209108	 1.0127893863	 0.138777
H	-3.1164321138	-2.4378258666	 0.6862774258	 0.235696
H	-2.942253336	-2.5310341942	-0.9095092491	 0.235708
46.1704	116.1933	143.5333	207.9558	221.8709	329.6827	445.2214	579.2377	682.2378	874.4092	921.99	944.601	1014.901	1155.1266	1177.9641	1181.1263	1206.5783	1227.1288	1376.5037	1390.1099	1456.2672	1473.1668	1482.2713	1497.7857	1679.56	1822.0758	3042.1869	3051.4796	3077.6528	3125.8196	3158.8241	3491.9868	3558.5791
COC(=O)CN	COC(=O)CN	
InChI=1S/C3H7NO2/c1-6-3(5)2-4/h2,4H2,1H3	InChI=1S/C3H7NO2/c1-6-3(5)2-4/h2,4H2,1H3
