13
gdb 4666	7.42979	1.24531	1.06784	4.5557	63.96	-0.2051	-0.0435	0.1615	1018.245	0.09585	-398.63584	-398.628618	-398.627673	-398.667363	26.089	
N	 0.0899290698	 1.3717413546	 0.1593608354	-0.592585
C	-0.0661645347	 0.0011284814	 0.0502349219	 0.411591
C	-1.1385207689	-0.8355869998	 0.0199356244	-0.406369
C	-0.5898725787	-2.1712901933	 0.0023678018	 0.185063
C	-1.3167870315	-3.4407368162	-0.0332428834	 0.068044
O	-0.7968343068	-4.5350584179	-0.0554401435	-0.276674
C	 0.7667428663	-2.0293856111	 0.0179711872	-0.084967
O	 1.0967056507	-0.7104619625	 0.0502744385	-0.167702
H	 0.9238997384	 1.714203857	-0.3003582777	 0.261317
H	-0.7264989198	 1.8877317235	-0.1364784311	 0.261262
H	-2.1800711565	-0.5572296418	 0.009682586	 0.1107
H	-2.4248173602	-3.3346927992	-0.039343387	 0.065918
H	 1.5825995918	-2.7305008148	 0.0067604275	 0.1644
111.0748	170.2088	181.62	217.3515	333.8335	379.8934	476.6375	617.4168	646.5106	693.6848	718.7184	747.3686	777.2725	782.1619	952.304	1011.9512	1039.1273	1090.9732	1153.9225	1195.8659	1259.7203	1319.9087	1415.6673	1460.2352	1586.767	1621.8123	1674.9691	1789.9858	2878.2259	3261.6091	3301.4538	3551.4304	3653.8095
NC1=CC(C=O)=CO1	Nc1cc(C=O)co1	
InChI=1S/C5H5NO2/c6-5-1-4(2-7)3-8-5/h1-3H,6H2	InChI=1S/C5H5NO2/c6-5-1-4(2-7)3-8-5/h1-3H,6H2
