13
gdb 399	5.6186	3.15251	2.43943	4.1425	54.31	-0.2853	0.037	0.3224	559.2985	0.108158	-249.363808	-249.357626	-249.356681	-249.393152	22.416	
C	-0.0414657747	 1.513353692	 0.0001512881	-0.456561
C	 0.0125151067	-0.0066605858	 0.0065699365	 0.191953
C	 1.3418779954	-0.706425784	-0.2362377227	-0.283193
C	 0.7382212768	-0.7221887408	 1.1366222102	-0.283181
C	-1.1644456375	-0.6553228481	-0.5180253956	 0.233412
N	-2.1145620128	-1.1618989069	-0.9418774999	-0.345061
H	 0.8856284189	 1.9211909964	 0.4127726022	 0.12324
H	-0.1622021461	 1.8980886527	-1.0166772622	 0.140117
H	-0.8759059589	 1.8795388153	 0.6052479232	 0.140111
H	 1.3317419315	-1.6244013998	-0.8111688827	 0.141253
H	 2.1943091189	-0.0625799866	-0.4224090072	 0.128339
H	 1.1715951679	-0.0891613882	 1.902963745	 0.128321
H	 0.3155202439	-1.6509515261	 1.5000190451	 0.141249
184.3767	198.3378	237.6107	332.2084	336.8222	571.2504	580.3068	651.4079	788.4542	850.7557	913.3244	951.1557	960.1805	1052.0954	1080.6203	1086.3245	1122.8713	1194.9185	1294.6706	1324.3027	1420.3382	1467.8272	1487.4214	1499.145	1502.9109	2349.3213	3042.2402	3115.4339	3118.5394	3143.045	3146.6698	3228.5586	3242.2653
CC1(CC1)C#N	CC1(CC1)C#N	
InChI=1S/C5H7N/c1-5(4-6)2-3-5/h2-3H2,1H3	InChI=1S/C5H7N/c1-5(4-6)2-3-5/h2-3H2,1H3
