13
gdb 1408	5.91579	1.51412	1.39501	3.2465	56.22	-0.2711	-0.0013	0.2699	848.3537	0.101257	-340.665904	-340.658365	-340.65742	-340.698145	25.109	
C	-0.1896132146	 1.4048959572	 0.0667846051	-0.355389
N	 0.0172731244	-0.0320491937	-0.028897462	-0.031426
C	 0.0092179834	-0.8141165079	 1.1852120918	-0.30993
C	-1.3077236158	-0.8373827284	 1.8488613869	 0.273384
N	-2.3394761778	-0.8375724098	 2.3678317937	-0.293882
C	 0.1756854662	-0.6351494665	-1.2499407505	 0.164645
O	 0.1886289356	-0.0607112578	-2.3129325454	-0.321895
H	 0.5948733874	 1.8679349015	 0.6766072347	 0.131171
H	-0.1514362256	 1.8080308423	-0.9447344732	 0.178216
H	-1.1635541078	 1.6291680375	 0.5151165831	 0.15172
H	 0.3005082397	-1.8432369872	 0.9502583633	 0.169005
H	 0.7444895948	-0.426081883	 1.9027790175	 0.162383
H	 0.3033199099	-1.7313481842	-1.151495085	 0.081998
56.8927	111.3046	160.0553	256.2251	315.5809	330.2195	366.8866	386.3379	513.0306	721.8088	869.3607	919.6704	978.3311	1025.0867	1092.9837	1161.5283	1237.9273	1274.8492	1378.6037	1425.3315	1439.1044	1444.3751	1464.7546	1497.7516	1519.3811	1810.8774	2363.2684	2937.706	3022.9821	3029.4714	3082.8149	3087.1354	3164.8772
CN(CC#N)C=O	CN(CC#N)C=O	
InChI=1S/C4H6N2O/c1-6(4-7)3-2-5/h4H,3H2,1H3	InChI=1S/C4H6N2O/c1-6(4-7)3-2-5/h4H,3H2,1H3
