14
gdb 523	21.32017	1.26339	1.22011	0.9061	59.21	-0.2424	0.0413	0.2837	974.5309	0.117121	-270.392759	-270.384807	-270.383863	-270.426097	25.219	
C	 0.1031134612	 1.4128692639	-0.0293467836	-0.217433
O	 0.1382551521	 0.0078279643	-0.1092179515	-0.227414
C	 0.5172426126	-0.5833850639	 1.1202706442	-0.199398
C	 0.5417252105	-2.0340408176	 0.9968157506	 0.005273
C	 0.5688193178	-3.2343056154	 0.9186106265	 0.131007
C	 0.5986497044	-4.6853624645	 0.8130064528	-0.498647
H	 1.0884289658	 1.8348116602	 0.227240051	 0.103115
H	-0.1955487362	 1.7856352337	-1.0116565852	 0.129729
H	-0.6238904287	 1.7639174023	 0.7209525669	 0.103116
H	 1.5118858907	-0.2153193873	 1.4291693741	 0.110629
H	-0.1856995184	-0.2856226124	 1.9186531947	 0.110633
H	 1.5873606678	-5.084587244	 1.0645480961	 0.147996
H	-0.1305875168	-5.1511057236	 1.484924637	 0.147943
H	 0.3616916373	-5.0071855758	-0.2070132535	 0.153451
18.671	80.6826	104.062	209.4582	231.072	300.7557	372.068	377.2761	497.9226	798.9194	976.7509	1026.1673	1051.5133	1058.0655	1137.4675	1182.2482	1182.7612	1220.3455	1254.7102	1410.3962	1416.5405	1476.6508	1477.8263	1479.1012	1484.1102	1496.6669	1517.1064	2380.6999	2938.8995	2954.8667	2965.4837	3006.745	3027.6287	3088.113	3090.2095	3118.4264
COCC#CC	COCC#CC	
InChI=1S/C5H8O/c1-3-4-5-6-2/h5H2,1-2H3	InChI=1S/C5H8O/c1-3-4-5-6-2/h5H2,1-2H3
