15
gdb 2979	5.11871	1.83625	1.58062	1.265	62.52	-0.2658	0.0299	0.2957	804.307	0.123487	-308.46104	-308.453483	-308.452539	-308.492593	27.81	
O	-0.3499631512	 1.3311137233	 0.0528009302	-0.419613
C	-0.057678237	-0.0641541666	 0.0169952869	-0.054233
C	 0.7542233501	-0.4103109656	-1.1543363051	 0.293216
C	 1.4460164424	-0.6681428997	-2.1032371631	-0.460301
C	 0.5978306277	-0.5589248185	 1.3064167699	 0.018943
C	 1.5622831315	 0.3096973475	 2.0669896282	-0.26095
C	 0.1875827675	 0.0294543197	 2.6274406775	-0.275887
H	 0.4440371268	 1.8001631691	-0.2245356186	 0.290551
H	-1.0362292139	-0.5530203851	-0.0778003335	 0.119248
H	 2.0449815432	-0.9034035082	-2.9482794403	 0.201257
H	 0.8149338327	-1.6227882102	 1.2846444383	 0.094725
H	 2.4238365626	-0.1620305937	 2.5254033282	 0.112453
H	 1.7465003256	 1.313487054	 1.7000735034	 0.102649
H	-0.524502264	 0.8461370637	 2.6020776841	 0.128302
H	 0.0962944659	-0.6344645797	 3.4797259639	 0.109641
73.2935	145.8267	211.8396	254.4449	288.1352	327.0817	461.7233	545.6954	619.0645	634.3907	673.5803	766.1178	790.0325	839.1599	908.7071	958.5306	1011.9988	1028.1715	1061.9351	1086.0861	1136.9358	1142.3542	1197.8322	1228.8689	1268.0007	1320.9746	1385.014	1419.6515	1458.1215	1502.6783	2231.7883	3023.6008	3136.9837	3140.2773	3154.7081	3216.8117	3233.1647	3502.8101	3818.3429
OC(C#C)C1CC1	O[C@@H](C#C)C1CC1	
InChI=1S/C6H8O/c1-2-6(7)5-3-4-5/h1,5-7H,3-4H2	InChI=1S/C6H8O/c1-2-6(7)5-3-4-5/h1,5-7H,3-4H2/t6-/m0/s1
