16
gdb 802	7.59857	1.49645	1.32512	1.0383	65.04	-0.2394	0.0102	0.2496	910.3952	0.135534	-325.72997	-325.722501	-325.721557	-325.761646	27.432	
C	-0.6510631903	 1.3237510125	-0.1751157109	-0.40307
C	 0.1351475649	 0.0436287368	 0.0599478039	 0.047822
C	 1.3989462768	-0.2028448327	-0.836599462	-0.326039
C	 2.1714332104	-0.4806388851	 0.4348255589	 0.423275
C	 1.0419504017	-0.0260429411	 1.3351603674	-0.329942
N	 3.3133698603	-1.0022612473	 0.596835642	-0.232461
O	 3.6193792788	-1.1220700137	 1.9683490659	-0.396779
H	 0.0063269923	 2.2003186345	-0.1394147833	 0.114765
H	-1.1418690438	 1.3150410191	-1.1545352149	 0.117492
H	-1.4271832	 1.4582276349	 0.5862382234	 0.118017
H	-0.5333019055	-0.8214044818	 0.0207420056	 0.080725
H	 1.3478932391	-1.0147593266	-1.5664188509	 0.119608
H	 1.7352285986	 0.7044345009	-1.3519045052	 0.116828
H	 1.22809114	 0.9531004595	 1.7915783804	 0.12018
H	 0.7537249867	-0.721510492	 2.1275506216	 0.124782
H	 4.4861172898	-1.5410829779	 1.944258858	 0.304799
49.7294	185.0025	239.0368	257.6436	328.372	343.2475	398.7715	466.6214	526.5905	671.7529	776.2261	787.6103	883.3941	910.0413	934.9924	969.0188	1014.3648	1075.2914	1124.3515	1127.5987	1186.5973	1216.9201	1223.6831	1256.6954	1281.8477	1364.0301	1401.6778	1412.6892	1451.8032	1472.3302	1495.294	1496.9552	1785.1305	3023.8218	3039.623	3044.4066	3057.6202	3091.6034	3094.7881	3101.2669	3104.555	3819.7333
CC1CC(C1)=NO	C[C@H]1CC(=NO)C1	
InChI=1S/C5H9NO/c1-4-2-5(3-4)6-7/h4,7H,2-3H2,1H3	InChI=1S/C5H9NO/c1-4-2-5(3-4)6-7/h4,7H,2-3H2,1H3/t4-
