13
gdb 1259	8.20044	1.2732	1.14203	7.2557	54.97	-0.2409	0.0036	0.2444	966.6252	0.101581	-377.813742	-377.806295	-377.805351	-377.845832	25.786	
N	-0.008676274	 1.3820536425	 0.1547527104	-0.496552
C	-0.0394227159	 0.0208722815	 0.1231587989	 0.118244
N	-1.0241326127	-0.6421641786	-0.3379479471	-0.250778
H	-2.9032961292	-0.8763337927	-0.0955093936	 0.300317
C	-0.9946986786	-2.0881200894	-0.2496871448	-0.292353
C	-2.3653825088	-2.6354072036	 0.1778703644	 0.414415
O	-3.3399230745	-1.7142444101	 0.1636080788	-0.360991
O	-2.550830168	-3.7841955761	 0.4731140624	-0.335588
H	 0.872695349	 1.8468303515	 0.2857503247	 0.267243
H	-0.7081149795	 1.8769740253	-0.3765737986	 0.265541
H	 0.8492128892	-0.4502536241	 0.5621327689	 0.105807
H	-0.7883511011	-2.5244895974	-1.2367836152	 0.141341
H	-0.239471336	-2.4863948587	 0.4418489811	 0.123353
66.9297	99.6904	158.774	291.9504	318.5184	365.8333	420.668	563.7482	570.0251	611.5299	656.1657	781.2183	875.5506	975.2811	1007.7525	1040.0341	1166.0416	1217.3016	1235.6612	1300.9744	1334.645	1415.0622	1422.9429	1464.2101	1631.7868	1765.6701	1878.0044	3004.6903	3044.5723	3046.8122	3529.8127	3599.0259	3727.9648
NC=[NH+]CC([O-])=O	NC=NCC(=O)O	
InChI=1S/C3H6N2O2/c4-2-5-1-3(6)7/h2H,1H2,(H2,4,5)(H,6,7)	InChI=1S/C3H6N2O2/c4-2-5-1-3(6)7/h2H,1H2,(H2,4,5)(H,6,7)
