12
gdb 3650	6.97393	2.94237	2.12541	5.1764	56.12	-0.2523	0.0088	0.2611	579.9325	0.093099	-319.515995	-319.510864	-319.509919	-319.544908	18.834	
C	-0.0242007829	 1.5621741125	-0.0138148902	-0.168842
C	 1.5482945648	 1.4514815462	-0.0984205055	-0.373738
C	 1.3494511877	-0.0036609128	 0.3225430545	 0.312072
C	 1.5650775693	-1.3176767761	 0.6737552539	-0.207045
N	 0.3308786245	-1.8646547655	 0.9171850002	-0.180606
N	-0.6293039902	-0.9832218281	 0.7418549844	-0.179676
N	 0.0174599319	 0.1353068111	 0.3816665647	 0.095612
H	-0.4164389367	 2.2174256763	 0.7657561407	 0.147701
H	-0.5431109942	 1.7360020053	-0.9579840432	 0.147704
H	 1.9597136588	 1.6009662659	-1.0981673271	 0.141031
H	 2.0855510409	 2.0792588853	 0.614572214	 0.141038
H	 2.4630504461	-1.90336875	 0.7713216837	 0.124747
142.9986	244.3468	430.0246	668.9508	696.1853	699.2512	802.8139	827.4837	832.5971	898.3534	1007.909	1060.7849	1081.8974	1108.5078	1133.2202	1179.1699	1203.7936	1220.7601	1255.7056	1283.713	1332.7233	1472.5785	1482.6198	1523.0617	1542.2767	3081.618	3085.357	3132.6248	3148.1743	3286.1062
C1CC2=CN=NN12	C1Cc2cnnn12	
InChI=1S/C4H5N3/c1-2-7-4(1)3-5-6-7/h3H,1-2H2	InChI=1S/C4H5N3/c1-2-7-4(1)3-5-6-7/h3H,1-2H2
