10
gdb 926	5.88606	3.00405	1.98895	5.4728	51.09	-0.2659	-0.0815	0.1844	579.0954	0.068208	-359.361259	-359.356051	-359.355107	-359.390504	18.79	
O	-0.0429836915	-0.0297199179	 0.0032572473	-0.317316
C	 0.0463057839	 1.1579363297	 0.008642144	 0.45305
O	-1.2013436044	 1.8825260791	 0.0291496261	-0.20117
C	-1.2194144487	 3.2080133235	 0.0365861656	 0.119772
C	-0.0865054425	 3.9453225976	 0.025480347	-0.203475
C	 1.129670968	 3.2026014566	 0.0051617209	 0.042415
N	 1.2056710439	 1.9042108445	-0.0028978215	-0.310767
H	-2.2274618346	 3.6117239582	 0.0522287632	 0.15408
H	-0.1090936455	 5.025220597	 0.031651869	 0.127267
H	 2.0796438114	 3.7379272818	-0.0046455516	 0.136142
92.5063	373.1788	496.0895	506.6495	562.1374	605.4145	710.296	799.6043	803.7753	935.7406	978.4403	985.6833	1023.5172	1089.7948	1118.0741	1289.2277	1412.274	1452.9851	1563.6644	1687.3162	1888.6203	3130.832	3187.8063	3246.0861
O=C1OC=CC=N1	O=c1occcn1	
InChI=1S/C4H3NO2/c6-4-5-2-1-3-7-4/h1-3H	InChI=1S/C4H3NO2/c6-4-5-2-1-3-7-4/h1-3H
