12
gdb 3890	7.85289	2.02596	1.65481	2.4321	50.98	-0.2523	-0.0243	0.228	706.6927	0.09201	-356.685238	-356.679015	-356.67807	-356.715969	21.376	
N	 0.1445676786	 1.470676581	-0.0378586475	-0.507656
C	 0.236898468	 0.017481633	-0.1330881995	-0.272786
C	 0.8547917295	-0.5346621158	 1.1095828707	 0.46758
N	 0.7743493847	-0.0586754861	 2.3170666929	-0.319779
C	 1.4819363539	-0.9931051988	 3.0323850102	 0.043718
N	 1.9669970793	-1.9817055527	 2.3349333954	-0.115366
O	 1.5477477593	-1.6747468306	 1.0305715996	-0.197523
H	-0.4724643693	 1.8227165157	-0.7617411611	 0.235766
H	-0.2622649663	 1.7220855405	 0.8578939157	 0.250871
H	-0.7288936527	-0.5028367405	-0.2709897032	 0.122843
H	 0.8635350431	-0.2640611575	-0.9865685774	 0.142871
H	 1.6381706519	-0.9325619284	 4.0996225542	 0.14946
53.2076	187.1868	218.5302	294.7678	434.1369	651.4718	674.2042	737.1409	853.6883	908.5768	932.45	980.641	1019.7978	1029.2617	1100.0421	1166.6191	1199.9076	1255.3473	1277.8429	1317.3671	1439.3126	1500.2464	1524.9386	1620.2623	1655.0285	2933.55	3064.54	3262.2178	3505.4977	3589.7875
NCC1=NC=NO1	NCc1ncno1	
InChI=1S/C3H5N3O/c4-1-3-5-2-6-7-3/h2H,1,4H2	InChI=1S/C3H5N3O/c4-1-3-5-2-6-7-3/h2H,1,4H2
