19
gdb 2110	4.27689	2.22425	1.60383	1.4344	66.9	-0.2575	0.0809	0.3384	810.0618	0.174115	-310.945132	-310.93822	-310.937276	-310.975523	27.4	
O	-0.0736094035	 1.4446779787	 0.0110549223	-0.442663
C	 0.0128578592	 0.0245718662	 0.0077957815	 0.148754
C	 0.7762692957	-0.5093088066	 1.2260533416	-0.212927
C	 0.7670177609	-2.045089548	 1.2694927383	-0.195969
C	-0.6668822248	-2.5934402403	 1.2309001178	-0.176527
C	-1.4388453312	-2.0497974504	 0.0196689562	-0.199689
C	-1.4163849212	-0.5149165303	-0.0197516476	-0.179787
H	 0.8210138805	 1.7950798496	 0.0705476904	 0.27594
H	 0.5312119398	-0.3185955054	-0.9059698139	 0.056477
H	 1.808376547	-0.1336367758	 1.2124240041	 0.076442
H	 0.3020591617	-0.1032857983	 2.1293769132	 0.100076
H	 1.3270236112	-2.4367059499	 0.4088860409	 0.093076
H	 1.2897195771	-2.3992686035	 2.164826203	 0.092264
H	-0.6530959474	-3.6890271557	 1.212432319	 0.089096
H	-1.189417449	-2.3030698705	 2.1527753388	 0.093498
H	-0.988987145	-2.4449666197	-0.9018192205	 0.092593
H	-2.4741323753	-2.4076157393	 0.0349722548	 0.092836
H	-1.9494338318	-0.1078024983	 0.8495183453	 0.099118
H	-1.9285041939	-0.1364496126	-0.910537395	 0.097392
158.8008	227.4037	280.9252	330.4593	341.0785	403.3168	453.6462	470.779	554.0613	793.0942	794.4585	851.1444	891.8145	898.5174	931.5767	984.187	1034.3517	1050.6404	1074.5156	1092.6463	1106.8389	1155.2389	1178.8541	1255.148	1275.3573	1282.9723	1297.4801	1337.6236	1350.2223	1365.8028	1377.889	1381.6276	1398.1273	1439.1317	1483.6933	1486.97	1488.556	1493.4091	1509.3128	2931.6571	3007.9724	3011.5126	3012.1048	3017.3185	3027.1649	3051.4766	3062.5649	3064.3015	3069.2875	3078.486	3812.3468
OC1CCCCC1	OC1CCCCC1	
InChI=1S/C6H12O/c7-6-4-2-1-3-5-6/h6-7H,1-5H2	InChI=1S/C6H12O/c7-6-4-2-1-3-5-6/h6-7H,1-5H2
