11
gdb 4334	3.97439	2.05279	1.35363	4.5691	55.58	-0.2647	-0.062	0.2027	805.0408	0.073577	-434.607739	-434.601707	-434.600763	-434.638136	22.484	
O	-0.0494045449	 1.3197817751	 0.0100210056	-0.386075
C	 0.0002796282	-0.0114304084	 0.0027295085	 0.456481
N	 1.1673979757	-0.5882881936	-0.0071558751	-0.433457
C	 1.2611179158	-1.9513658343	-0.0148207858	 0.44937
O	 2.2531778685	-2.6119273394	-0.0242800473	-0.328566
O	 0.0175183212	-2.6892850577	-0.0113956723	-0.213596
C	-1.1451478833	-2.0502816012	-0.0012237782	 0.124982
C	-1.2485802687	-0.7055611295	 0.0064394634	-0.275544
H	 0.8702848237	 1.6297221344	 0.0062385361	 0.31394
H	-1.9927196711	-2.7282357719	 0.0001953393	 0.156161
H	-2.1968072752	-0.1906594636	 0.0147042159	 0.136304
116.1866	209.6893	379.4192	403.98	514.9711	551.5768	590.7689	632.2964	695.2707	754.2231	789.5545	809.848	829.7453	971.4612	984.5532	1099.7357	1137.1665	1246.9384	1313.6166	1388.7291	1505.6097	1598.3483	1693.7347	1895.1208	3196.1377	3257.7068	3730.2535
OC1=NC(=O)OC=C1	Oc1nc(=O)occ1	
InChI=1S/C4H3NO3/c6-3-1-2-8-4(7)5-3/h1-2H,(H,5,6,7)	InChI=1S/C4H3NO3/c6-3-1-2-8-4(7)5-3/h1-2H,(H,5,6,7)
