17
gdb 3073	9.90457	1.07794	1.03206	2.38	62.22	-0.2558	0.085	0.3407	1152.4958	0.146546	-346.820834	-346.812737	-346.811792	-346.853967	27.672	
C	-0.0956870754	 1.489944973	-0.1277795493	-0.38448
C	 0.034577518	-0.0199909787	-0.0251871778	-0.0254
O	 0.7240320068	-0.4906193947	-1.1657593106	-0.244415
C	 0.9045384823	-1.8869702127	-1.1706334657	-0.072654
C	 1.6482121534	-2.2711626563	-2.419721903	 0.084042
C	 1.539679754	-3.6200433195	-2.985751226	-0.181908
O	 0.869330462	-2.5162230499	-3.5916797981	-0.226302
H	 0.8916617736	 1.9579125882	-0.1753561737	 0.126425
H	-0.6490848248	 1.7654937047	-1.0297596196	 0.130882
H	-0.627326238	 1.8865598469	 0.7423332819	 0.114253
H	 0.5808818143	-0.3015837601	 0.8918700891	 0.083395
H	-0.9608866162	-0.4914240972	 0.0378128537	 0.087624
H	 1.4822851363	-2.2063736202	-0.2842058751	 0.086073
H	-0.0627029535	-2.4155801072	-1.146767272	 0.093304
H	 2.5598307266	-1.7005227219	-2.5989247127	 0.100629
H	 2.3732326025	-4.0365089567	-3.5493511888	 0.116253
H	 0.892294218	-4.355353508	-2.5082995623	 0.112281
61.114	81.42	129.0762	149.8157	246.7699	302.8007	343.8558	468.83	493.7103	803.512	821.7605	869.86	895.7699	955.302	1000.1139	1045.2101	1091.9945	1138.1892	1153.2102	1159.6695	1169.3124	1177.5432	1194.0833	1268.8417	1293.1388	1297.6634	1362.968	1401.0275	1425.9477	1469.2965	1483.4573	1496.3752	1501.3963	1531.1627	1535.2263	2939.4586	2953.2594	2976.1272	2987.6587	3045.7459	3080.4824	3114.8457	3119.9119	3123.5131	3165.7699
CCOCC1CO1	CCOC[C@H]1CO1	
InChI=1S/C5H10O2/c1-2-6-3-5-4-7-5/h5H,2-4H2,1H3	InChI=1S/C5H10O2/c1-2-6-3-5-4-7-5/h5H,2-4H2,1H3/t5-/m0/s1
