19
gdb 4029	2.26149	1.67595	1.14443	2.1248	70.32	-0.2491	0.0065	0.2556	1109.8886	0.162711	-402.159952	-402.150163	-402.149219	-402.194344	35.258	
C	 0.0041176727	 1.623071611	 0.2605447937	-0.412845
C	-0.073851354	 0.1129000574	-0.0049028489	-0.050721
C	 0.8954139055	-0.6706289483	 0.9056631023	-0.388314
C	-1.4721222287	-0.4517169118	 0.1382681339	 0.323232
C	-2.4712451249	 0.1677059711	 1.0936887295	-0.104581
O	-3.6798545618	-0.5386911799	 1.1828632086	-0.427561
N	-1.9065928289	-1.4845853433	-0.4730830607	-0.193729
O	-0.9653303095	-2.0668345914	-1.3312995508	-0.404056
H	 1.0259548765	 1.9750588275	 0.0891932233	 0.118363
H	-0.6584434983	 2.18769984	-0.4023741974	 0.122669
H	-0.2570002701	 1.871424336	 1.294552951	 0.123299
H	 0.2283025407	-0.0734288449	-1.0405411809	 0.110776
H	 0.6302353309	-0.5510566244	 1.9617683738	 0.117664
H	 0.8780140803	-1.7357746791	 0.6640759925	 0.137116
H	 1.9181018141	-0.3030661738	 0.7734072455	 0.115557
H	-2.0001889223	 0.2367159519	 2.0888237109	 0.106978
H	-2.6622350755	 1.2058400213	 0.777987688	 0.108467
H	-3.6022953729	-1.2737551172	 0.5578224776	 0.289126
H	-1.463141734	-2.7933551621	-1.7208725919	 0.308562
53.3735	108.9288	198.0494	206.9595	233.4839	241.1435	265.9756	295.4292	311.7606	326.5197	402.1414	415.9577	528.9909	609.7809	636.05	767.2701	905.1828	933.5656	969.9623	1000.3697	1021.4694	1045.9586	1126.7342	1129.7454	1189.3408	1250.3875	1259.9833	1317.5155	1335.6671	1348.3252	1396.0028	1411.6724	1422.128	1463.3141	1487.6781	1491.4242	1503.8223	1509.5213	1512.5607	1731.6458	2964.3585	2983.0259	3033.978	3037.1946	3056.492	3099.5051	3107.3348	3108.5529	3128.1166	3716.6164	3820.7292
CC(C)C(CO)=NO	CC(C)C(=NO)CO	
InChI=1S/C5H11NO2/c1-4(2)5(3-7)6-8/h4,7-8H,3H2,1-2H3	InChI=1S/C5H11NO2/c1-4(2)5(3-7)6-8/h4,7-8H,3H2,1-2H3
