11
gdb 1588	5.34424	1.99511	1.45385	4.7634	50.48	-0.2472	-0.1063	0.1409	757.7211	0.076826	-376.587519	-376.580145	-376.579201	-376.619737	24.815	
N	-0.0409702388	 1.347939369	 0.1040153746	-0.537468
C	 0.0784205646	-0.0027081408	 0.0180979609	 0.273229
N	 1.1281927913	-0.739505509	-0.0469977414	-0.504298
C	-1.2591224971	-0.7094530107	 0.0137127693	 0.293846
O	-2.2962501805	-0.0900835194	 0.0049155422	-0.287757
C	-1.2540969779	-2.2556355595	 0.0104718879	 0.083564
O	-2.2910068995	-2.8588849719	-0.0599616992	-0.216115
H	 0.750777694	 1.9484569169	-0.0472771381	 0.260548
H	-0.9686439223	 1.7335862775	 0.0174935558	 0.278049
H	 1.9865188352	-0.1838190515	-0.0561483517	 0.215236
H	-0.266876919	-2.7387890407	 0.0785714198	 0.141166
49.3498	76.3016	223.5424	255.7248	342.7531	384.2595	396.7485	511.4544	544.9491	636.989	704.4774	852.259	878.6821	1024.4087	1050.8551	1103.6657	1153.2527	1379.8117	1439.8449	1604.0755	1706.1675	1794.7328	1824.3134	3022.1315	3447.0109	3590.6166	3724.4018
NC(=N)C(=O)C=O	NC(=N)C(=O)C=O	
InChI=1S/C3H4N2O2/c4-3(5)2(7)1-6/h1H,(H3,4,5)	InChI=1S/C3H4N2O2/c4-3(5)2(7)1-6/h1H,(H3,4,5)
