14
gdb 1208	8.24003	1.18295	1.05444	3.8066	58.65	-0.2662	-0.0306	0.2356	1043.3686	0.111245	-324.619773	-324.611667	-324.610723	-324.653631	26.728	
C	-0.0050130513	 1.5109577159	-0.0206497146	-0.475805
C	-0.0205091944	-0.0021217519	 0.0648110804	 0.377723
O	-0.0702185554	-0.5929165829	 1.1188177329	-0.284172
C	 0.0303769544	-0.7530615337	-1.2624618941	-0.29952
C	 0.0095430595	-2.2756367914	-1.0590815981	-0.33452
C	 0.058072701	-2.9993073342	-2.3263235621	 0.252725
N	 0.0969855513	-3.5563496961	-3.3380357133	-0.303854
H	 0.8999939716	 1.855039737	-0.5337661656	 0.145221
H	-0.8576534952	 1.8687814442	-0.6086004244	 0.14523
H	-0.0443540218	 1.9382796164	 0.981631063	 0.150836
H	-0.8138517987	-0.4321346005	-1.8849203931	 0.145089
H	 0.9297587815	-0.4460227338	-1.8101939734	 0.145097
H	 0.8547729282	-2.5812424496	-0.4350507605	 0.167978
H	-0.8907107207	-2.5673455094	-0.5098341671	 0.167972
30.9982	69.7364	117.3286	126.9084	247.9253	365.3638	390.7358	479.4058	538.4199	587.7761	741.248	829.3119	917.5211	919.4868	983.7128	1060.537	1080.9218	1179.7457	1187.2926	1295.9264	1302.0622	1379.7051	1388.6806	1449.3254	1461.0708	1465.7289	1477.0664	1812.6533	2363.7464	3035.5785	3042.9133	3068.443	3070.5577	3099.298	3107.2827	3156.4701
CC(=O)CCC#N	CC(=O)CCC#N	
InChI=1S/C5H7NO/c1-5(7)3-2-4-6/h2-3H2,1H3	InChI=1S/C5H7NO/c1-5(7)3-2-4-6/h2-3H2,1H3
