17
gdb 4006	3.03539	1.27686	1.01192	2.1277	68.88	-0.2455	-0.0377	0.2078	1165.3207	0.139195	-400.972102	-400.962745	-400.9618	-401.007505	32.147	
C	 0.3822264019	 0.5070169678	 1.5389517604	-0.377903
C	 0.0648485276	 0.0220834895	 0.1116124886	-0.268455
C	-1.2978871282	-0.6181926108	 0.0224558257	 0.339388
C	-1.4009884415	-2.1257031914	 0.0864385165	-0.341656
C	-0.9306321425	-2.7277848922	-1.230327211	 0.152685
O	 0.1022157416	-3.327069302	-1.3764374756	-0.232729
N	-2.405409195	 0.0083708597	-0.11169353	-0.16779
O	-2.2181749342	 1.3972145119	-0.174638704	-0.394458
H	 1.3784959802	 0.9569997585	 1.5752523431	 0.120395
H	-0.3468647739	 1.2555029332	 1.8578453031	 0.139858
H	 0.3613771595	-0.3200250856	 2.2558146277	 0.119378
H	 0.1000634858	 0.8729418838	-0.5744575334	 0.130976
H	 0.8190370937	-0.7026354425	-0.2113601902	 0.118883
H	-0.7754806003	-2.5246804094	 0.8908600791	 0.127786
H	-2.4473285679	-2.4023478083	 0.2479777094	 0.133391
H	-1.6210752586	-2.5417279116	-2.083164417	 0.09119
H	-3.1199571983	 1.7182353596	-0.2804038023	 0.309062
40.9937	57.3993	72.0436	170.8806	224.3588	247.8085	315.7703	343.9915	365.8428	432.2081	488.4508	599.2337	669.909	763.7814	807.2009	873.2945	963.7977	992.4142	1014.0411	1046.586	1087.4266	1106.1006	1189.8692	1250.3505	1282.0875	1299.0415	1356.7992	1403.6439	1406.2568	1416.648	1456.3474	1485.9757	1499.0452	1509.0969	1719.7848	1830.4523	2886.4976	3042.6495	3050.132	3053.0912	3097.1156	3112.964	3115.7061	3132.0927	3820.1627
CCC(CC=O)=NO	CCC(=NO)CC=O	
InChI=1S/C5H9NO2/c1-2-5(6-8)3-4-7/h4,8H,2-3H2,1H3	InChI=1S/C5H9NO2/c1-2-5(6-8)3-4-7/h4,8H,2-3H2,1H3
