15
gdb 2182	3.52738	2.6688	1.82504	3.3227	57.61	-0.2386	-0.0168	0.2218	719.9345	0.123285	-345.660459	-345.653031	-345.652087	-345.691978	26.825	
C	 0.0368618188	 1.6370983384	-0.0081022956	-0.408009
C	 0.1312642496	 0.1192304274	-0.012219823	-0.089514
C	 0.8088222368	-0.6377471362	-1.2000439191	 0.092555
O	 1.6900496176	 0.2429855711	-1.8651339059	-0.42531
C	 1.5330068746	-1.5832020493	-0.1898806598	-0.369261
C	 1.1433278291	-0.5803903474	 0.9131245359	 0.392192
O	 1.536078665	-0.3662902299	 2.0220012434	-0.294098
H	 0.9938491808	 2.0834240123	-0.2845924835	 0.141806
H	-0.72101323	 1.9898596912	-0.7139223593	 0.118384
H	-0.2341566474	 1.9892838444	 0.9914267261	 0.130855
H	-0.8514675473	-0.3334334984	 0.1772134181	 0.102904
H	 0.1225237797	-1.1259061968	-1.9019365818	 0.069134
H	 2.2302994718	-0.2725749817	-2.4720047481	 0.288229
H	 1.035275682	-2.5493498422	-0.0553760812	 0.12661
H	 2.602155759	-1.746345123	-0.3476009862	 0.123524
68.8777	163.607	196.0634	241.1836	297.0347	387.8504	419.9103	516.6161	536.4385	701.708	725.916	817.3527	868.1945	915.1296	996.3952	1010.0567	1051.5155	1103.7119	1145.2123	1158.178	1199.3534	1212.1197	1263.8646	1299.2469	1345.1984	1396.5238	1413.8292	1430.2178	1488.5581	1500.6698	1895.7858	3021.394	3033.1773	3047.9285	3056.1736	3113.3899	3117.2471	3138.948	3821.0855
CC1C(O)CC1=O	C[C@H]1[C@@H](O)CC1=O	
InChI=1S/C5H8O2/c1-3-4(6)2-5(3)7/h3-4,6H,2H2,1H3	InChI=1S/C5H8O2/c1-3-4(6)2-5(3)7/h3-4,6H,2H2,1H3/t3-,4-/m0/s1
