14
gdb 4043	6.22933	1.30222	1.09168	2.5911	62.63	-0.2627	-0.0171	0.2456	1008.9265	0.107142	-415.835076	-415.827718	-415.826774	-415.867523	26.637	
O	-0.1832387507	 1.3215728424	-0.0499964197	-0.394661
N	 0.0136423697	-0.0683197416	 0.0142120427	-0.205759
C	-1.1016472173	-0.6746886305	 0.0175393827	 0.364398
C	-2.4774906152	-0.0561847445	-0.0370261494	-0.15981
O	-3.3952990301	-1.1519043301	-0.00550221	-0.242417
C	-2.7572989282	-2.3629427485	 0.0603816622	 0.42115
N	-3.3452086274	-3.4767132479	 0.0994568398	-0.531851
C	-1.2538783721	-2.1675134904	 0.0789942017	-0.410073
H	 0.7185643613	 1.6601134521	-0.0457060587	 0.31352
H	-2.661591976	 0.6058432956	 0.8166521428	 0.14577
H	-2.6272786763	 0.5261526456	-0.9532441694	 0.145697
H	-4.3583841956	-3.3500241163	 0.0752242661	 0.225744
H	-0.7912090179	-2.6761473665	-0.7715581061	 0.164122
H	-0.8221972342	-2.6011300792	 0.9854680253	 0.164171
36.8703	133.4493	209.0176	271.9536	379.3624	405.8715	496.536	513.7289	521.8223	686.9883	692.8185	849.6761	856.2623	891.3675	909.5682	981.3147	1020.8917	1033.4866	1119.3404	1151.5825	1206.4569	1231.2451	1259.7955	1294.1001	1376.0167	1414.4732	1448.4824	1497.9509	1767.4489	1789.1852	3039.2824	3068.4936	3074.394	3103.5707	3476.8918	3820.0076
ON=C1COC(=N)C1	ON=C1CO[C]([NH])C1	
InChI=1S/C4H6N2O2/c5-4-1-3(6-7)2-8-4/h5,7H,1-2H2	InChI=1S/C4H6N2O2/c5-4-1-3(6-7)2-8-4/h5,7H,1-2H2
