19
gdb 1318	3.31609	2.42682	2.04733	1.7442	67.01	-0.24	0.0777	0.3176	773.9021	0.170167	-310.913156	-310.905055	-310.904111	-310.944991	30.107	
C	-0.4214150461	 1.4306881334	-0.0132433422	-0.410246
C	 0.2021681211	 0.0509924105	-0.0545315881	 0.137421
O	 1.5000674613	 0.0426549792	-0.6942103771	-0.296056
C	 2.0401656375	-0.8209028844	 0.3235672145	-0.103233
C	 0.7917277858	-0.6315880923	 1.2227647581	 0.269911
C	 1.0504261669	 0.3081472143	 2.4001967079	-0.443904
C	 0.0817752002	-1.9035150799	 1.6750946211	-0.456517
H	 0.2178143529	 2.1500840311	 0.5041396409	 0.120392
H	-0.5803881115	 1.7921857971	-1.0343718349	 0.127381
H	-1.3951113367	 1.3990692707	 0.4879467249	 0.114087
H	-0.4791252408	-0.637439563	-0.5802282253	 0.060939
H	 2.183078828	-1.847826804	-0.0425618416	 0.088295
H	 2.9934953217	-0.447028707	 0.7164724533	 0.095853
H	 1.5978114845	 1.2037619159	 2.0925164497	 0.123723
H	 0.1151128851	 0.6278554198	 2.8727344113	 0.11384
H	 1.6499875973	-0.1998158332	 3.1641565942	 0.113052
H	 0.6736519436	-2.4407053642	 2.4250568835	 0.114708
H	-0.8895956324	-1.6728091893	 2.1279299849	 0.115046
H	-0.0928463987	-2.5839787945	 0.835421635	 0.115308
70.4645	198.2517	212.7324	237.9981	266.5534	298.369	345.673	371.3169	418.219	511.6004	637.0517	757.5441	864.6852	881.2705	930.9492	960.7551	977.2289	1015.4111	1029.434	1068.2037	1099.4695	1135.0098	1167.5828	1212.4484	1251.8115	1275.2581	1304.2844	1363.826	1388.6847	1405.335	1410.2769	1426.0675	1477.7816	1483.5813	1490.0474	1497.1355	1505.1197	1512.0877	1527.1521	2964.4714	2993.7301	3022.262	3028.8962	3038.6491	3048.0011	3085.5379	3091.3842	3097.722	3103.328	3107.1417	3127.008
CC1OCC1(C)C	C[C@H]1OCC1(C)C	
InChI=1S/C6H12O/c1-5-6(2,3)4-7-5/h5H,4H2,1-3H3	InChI=1S/C6H12O/c1-5-6(2,3)4-7-5/h5H,4H2,1-3H3/t5-/m1/s1
