14
gdb 3236	5.26706	2.70909	2.3506	1.0454	56.37	-0.2087	0.073	0.2817	602.8075	0.113516	-324.475651	-324.469832	-324.468888	-324.504724	23.626	
O	-0.0929055409	 1.4107490398	 0.0184310408	-0.456621
C	-0.0189349287	 0.0312991023	 0.0211043243	 0.392079
C	-0.2418760381	-0.8340432507	-1.1867907745	-0.35155
C	-1.1670066536	-0.951334833	 0.0142903603	-0.119492
C	-0.4966278481	-1.7099624643	 1.1979175253	-0.042404
N	 0.8621194554	-2.1601401466	 0.7884986824	-0.337736
C	 0.6266797649	-0.75659707	 1.2137490748	-0.131934
H	 0.6642577224	 1.7506524676	-0.4722618803	 0.286236
H	-0.6949499128	-0.2952572839	-2.0138192139	 0.108335
H	 0.4346526052	-1.6354449479	-1.4551285406	 0.138967
H	-2.2296186018	-0.7609194763	-0.0516178594	 0.096762
H	-1.0208994595	-2.1853108074	 2.0164041555	 0.094142
H	 1.2668268354	-2.6512226701	 1.5859602786	 0.228458
H	 1.1558955702	-0.3033590993	 2.0423043967	 0.094756
244.1194	301.863	343.6236	411.122	449.8422	537.563	633.1181	729.0743	790.8116	817.7867	841.9728	855.7432	909.1835	924.6552	955.0551	981.2481	1002.7554	1054.6207	1085.9949	1091.8858	1124.5646	1190.3159	1214.1346	1260.9534	1303.5357	1321.4848	1351.546	1400.287	1480.4473	3134.8702	3190.892	3202.7786	3210.708	3232.7138	3465.2851	3781.1344
OC12CC1C1NC21	O[C@]12C[C@H]1[C@H]1N[C@@H]21	
InChI=1S/C5H7NO/c7-5-1-2(5)3-4(5)6-3/h2-4,6-7H,1H2	InChI=1S/C5H7NO/c7-5-1-2(5)3-4(5)6-3/h2-4,6-7H,1H2/t2-,3+,4+,5+/m0/s1
