15
gdb 2757	4.41178	2.17635	1.58041	4.3813	62.45	-0.2393	0.0143	0.2536	780.6982	0.125589	-304.686259	-304.679244	-304.678299	-304.717258	25.092	
C	-0.0117919347	 1.4982243913	-0.0215950603	-0.332452
N	-0.0179769273	 0.058630995	 0.1189685107	-0.055953
C	-1.263271967	-0.6323098917	 0.5094856643	-0.163357
C	-0.4156726165	-1.622956446	 1.3421968434	-0.248581
C	 0.6995727647	-0.5411649589	 1.2578989326	-0.103113
C	 2.0758605949	-0.959657696	 0.991898948	 0.291105
N	 3.1627141159	-1.297050695	 0.7902416896	-0.324144
H	 1.0066685182	 1.8439591744	-0.2245741915	 0.138412
H	-0.6393533116	 1.7842478391	-0.8713576823	 0.131061
H	-0.3861258617	 2.0237316043	 0.8770100323	 0.095449
H	-1.91905367	-0.0149871909	 1.145097223	 0.092664
H	-1.8477186255	-1.0283624965	-0.3258890221	 0.1161
H	-0.7652523717	-1.8789490823	 2.3411830539	 0.12234
H	-0.1523371576	-2.5266797152	 0.7931019024	 0.138132
H	 0.6990589898	 0.0985581183	 2.1568722261	 0.102337
116.0718	151.7532	217.1916	229.7345	323.8935	344.3947	525.5804	554.185	634.5235	788.1805	821.9138	948.5239	952.0615	994.904	1060.4103	1079.2535	1134.1246	1163.2304	1196.0076	1226.3567	1239.7603	1253.496	1281.3949	1330.0702	1370.7713	1451.5748	1486.8867	1487.7495	1497.0779	1525.823	2357.0196	2932.4721	2955.6992	2972.7791	3067.2767	3077.0576	3103.0446	3110.0505	3164.9634
CN1CCC1C#N	CN1CC[C@H]1C#N	
InChI=1S/C5H8N2/c1-7-3-2-5(7)4-6/h5H,2-3H2,1H3	InChI=1S/C5H8N2/c1-7-3-2-5(7)4-6/h5H,2-3H2,1H3/t5-/m0/s1
