13
gdb 1599	3.97842	2.31601	1.53133	3.4126	55.87	-0.2409	0.0186	0.2595	758.8159	0.100878	-340.624424	-340.616608	-340.615664	-340.656319	28.107	
N	-0.1899868911	 1.575787444	-0.1100652654	-0.504803
C	 0.0087960645	 0.128907802	-0.0136379113	-0.232991
C	-1.2505066193	-0.5763096008	 0.2048563047	 0.320082
C	-2.2819354513	-1.1754510609	 0.3577700713	-0.4568
C	 0.8229365685	-0.4357076851	-1.2227165321	 0.398078
N	 0.684538425	-1.7617712343	-1.4639402066	-0.523115
O	 1.580304768	 0.2935909634	-1.8320366181	-0.363079
H	 0.6547227636	 1.9454204119	-0.5458102334	 0.247486
H	-0.9375571897	 1.7546033286	-0.7761728549	 0.232524
H	 0.6565611532	-0.0593646038	 0.8572285014	 0.142217
H	-3.1998674192	-1.6878469443	 0.5110972719	 0.206927
H	-0.0696990412	-2.2801157919	-1.0453306067	 0.268969
H	 1.1802760891	-2.1590461488	-2.2456724408	 0.264504
55.5575	159.1954	221.9077	253.1587	297.4779	340.9299	407.5927	476.802	508.6958	559.8083	615.6974	624.2878	669.5322	706.6658	847.2134	935.2017	979.9681	1104.3605	1153.0322	1211.6025	1286.6032	1344.1354	1400.3124	1612.2048	1664.8992	1802.8498	2232.876	2985.8848	3464.412	3500.2296	3544.442	3590.1309	3722.5877
NC(C#C)C(N)=O	N[C@@H](C#C)C(=O)N	
InChI=1S/C4H6N2O/c1-2-3(5)4(6)7/h1,3H,5H2,(H2,6,7)	InChI=1S/C4H6N2O/c1-2-3(5)4(6)7/h1,3H,5H2,(H2,6,7)/t3-/m0/s1
