11
gdb 3901	5.79468	2.86349	1.91646	3.0603	55.05	-0.2416	-0.0658	0.1759	604.5075	0.081654	-339.474134	-339.468985	-339.468041	-339.503018	19.353	
O	-0.037185969	-0.078921195	 0.0034588354	-0.387105
C	 0.0230796771	 1.1366458647	 0.00890158	 0.422179
N	-1.1502351591	 1.9100086567	 0.028407392	-0.249868
N	-1.2809513341	 3.2396146122	 0.037017557	-0.17183
C	-0.1737131627	 3.9275372132	 0.0259711795	 0.000165
C	 1.1169747517	 3.3160783472	 0.0057944709	-0.085081
C	 1.2203589603	 1.9642047828	-0.0025670074	-0.191483
H	-2.0204215713	 1.392924382	 0.0372198832	 0.276933
H	-0.2896925387	 5.0049340585	 0.0330782612	 0.130495
H	 2.001043769	 3.9458188651	-0.0025935379	 0.122238
H	 2.1705817868	 1.4439339226	-0.0177741739	 0.133357
171.3704	378.3778	448.2889	516.4779	561.898	607.2537	745.0941	751.886	821.6521	847.1135	921.3512	1005.3785	1020.1811	1034.7019	1131.3956	1182.8914	1241.5037	1387.0152	1412.6689	1446.8321	1577.0385	1648.2016	1794.7321	3179.8146	3205.6655	3216.187	3586.8164
O=C1NN=CC=C1	O=c1[nH]nccc1	
InChI=1S/C4H4N2O/c7-4-2-1-3-5-6-4/h1-3H,(H,6,7)	InChI=1S/C4H4N2O/c7-4-2-1-3-5-6-4/h1-3H,(H,6,7)
