19
gdb 1885	5.13505	1.89288	1.4927	0.2785	74.16	-0.2244	0.0345	0.2589	885.4255	0.172142	-273.812881	-273.805312	-273.804368	-273.84417	28.538	
C	-0.1044822746	 1.572331776	-0.0132223885	-0.394395
C	 0.0141763334	 0.044371028	 0.0068417805	 0.006575
C	 0.8191699884	-0.5381098101	-1.1869573346	-0.215098
C	 1.5881276716	-1.7537003986	-0.6195070759	-0.296356
C	 1.618867914	-1.4852548236	 0.8733088177	 0.326601
C	 2.4845283996	-2.2830671265	 1.7963910823	-0.490064
C	 0.761587641	-0.5150960967	 1.1973832917	-0.163057
H	 0.8862192186	 2.0399092565	 0.0100112764	 0.112171
H	-0.6188129557	 1.9162225425	-0.9173140029	 0.109631
H	-0.6691322175	 1.9404010839	 0.8502985407	 0.108681
H	-1.0076176397	-0.3683316742	 0.0004081244	 0.071707
H	 0.186346517	-0.7902850339	-2.0424078446	 0.091234
H	 1.5365835023	 0.2171651052	-1.5283901806	 0.097339
H	 1.0676053369	-2.7014120061	-0.8233035002	 0.099363
H	 2.5906960722	-1.8614046599	-1.0516192323	 0.095073
H	 3.545037146	-2.1849717792	 1.5302453744	 0.121954
H	 2.3647811744	-1.9701059563	 2.8373472554	 0.120347
H	 2.249257901	-3.3537574347	 1.7344446826	 0.122202
H	 0.5755267311	-0.1701275425	 2.2105317634	 0.076093
110.0699	164.7429	194.9808	236.4836	278.3602	362.8704	405.7555	490.1032	587.2761	606.1337	811.0481	841.9885	862.1242	893.3827	929.5904	964.8905	995.5528	1017.2394	1037.4613	1063.4341	1118.3117	1129.0243	1179.264	1205.566	1247.1613	1282.8423	1313.1925	1322.9733	1344.4987	1373.5209	1406.7488	1415.1781	1480.1959	1483.261	1489.514	1496.5645	1498.4824	1501.9766	1723.1235	2965.8402	2996.9148	3013.8554	3024.44	3032.7629	3047.245	3057.6971	3089.7567	3093.6797	3096.3026	3107.2737	3170.9844
CC1CCC(C)=C1	C[C@H]1CCC(=C1)C	
InChI=1S/C7H12/c1-6-3-4-7(2)5-6/h5-6H,3-4H2,1-2H3	InChI=1S/C7H12/c1-6-3-4-7(2)5-6/h5-6H,3-4H2,1-2H3/t6-/m0/s1
