14
gdb 3415	4.88676	2.93489	2.11901	3.2311	58.54	-0.2525	0.0267	0.2792	624.8486	0.116025	-324.584396	-324.578789	-324.577844	-324.613678	21.695	
N	-0.0938942925	 1.2397738637	 0.2566589746	-0.550977
C	-0.0431939468	 0.004808421	-0.0015521652	 0.422594
O	 1.1155236368	-0.6938225581	-0.245564799	-0.249629
C	 0.8301660816	-1.9679958658	-0.849841316	-0.102821
C	-0.6463257289	-2.2276388875	-0.6135117629	-0.060019
C	-1.1018400269	-2.1458716811	 0.8108530056	-0.285106
C	-1.2004497284	-0.9226535906	-0.0833155507	-0.105532
H	 0.8403780872	 1.6501744067	 0.2141304337	 0.221315
H	 1.058169439	-1.9128451333	-1.9214636956	 0.115579
H	 1.4899929063	-2.7097458914	-0.3883704424	 0.119401
H	-1.1890204919	-2.8327165518	-1.3287162241	 0.1034
H	-2.0378144487	-2.62908381	 1.0657092805	 0.124387
H	-0.3584283202	-2.146498712	 1.6018426432	 0.130431
H	-2.1668626766	-0.5170265898	-0.3461041817	 0.116977
155.2052	241.1191	365.3688	430.7283	602.6034	700.6999	734.4995	780.0605	830.8645	862.6345	885.6581	923.2967	972.5648	989.7184	995.5923	1071.8777	1079.0742	1100.3292	1107.8002	1132.2397	1196.7441	1231.0145	1273.9434	1346.6276	1368.4928	1408.2153	1486.7072	1520.1387	1779.187	3027.9177	3077.4573	3133.0253	3193.7045	3220.0219	3228.953	3474.9116
N=C1OCC2CC12	[NH][C]1OC[C@H]2C[C@@H]12	
InChI=1S/C5H7NO/c6-5-4-1-3(4)2-7-5/h3-4,6H,1-2H2	InChI=1S/C5H7NO/c6-5-4-1-3(4)2-7-5/h3-4,6H,1-2H2/t3-,4-/m1/s1
