15
gdb 4116	4.2511	1.37129	1.13282	2.1986	61.51	-0.257	-0.0152	0.2418	1011.8116	0.116971	-436.869157	-436.860931	-436.859987	-436.902113	30.097	
O	-0.0840507917	 1.326852916	 0.5054266813	-0.382412
N	-0.0026741245	-0.0722272882	 0.5019405592	-0.236418
C	-1.0414429324	-0.5946524111	-0.0014587285	 0.385828
C	-2.3793801084	-0.1374778975	-0.5388611009	-0.369412
C	-2.8447388674	-1.6341796154	-0.4436595348	 0.154868
O	-3.4569549844	-2.218069684	-1.5498408206	-0.436162
C	-1.357509399	-2.0674646175	-0.1720247547	-0.020431
O	-0.8404136527	-2.6195150939	-1.3780162277	-0.43908
H	 0.7404578929	 1.5812490754	 0.9346283376	 0.309341
H	-2.9172357322	 0.6041415232	 0.0561585634	 0.129492
H	-2.3279496639	 0.21353892	-1.5748819595	 0.129559
H	-3.4814105849	-1.8009070476	 0.4290908232	 0.098045
H	-2.7417896247	-2.4442903081	-2.1606797937	 0.293884
H	-1.1618481297	-2.7282467966	 0.6800870588	 0.083329
H	 0.094594623	-2.3977263447	-1.4333651831	 0.299567
46.7863	148.2559	192.832	236.4029	276.5492	356.0187	395.5935	417.3519	451.5984	469.9426	548.6564	641.7266	695.0879	779.5932	846.1781	942.4209	980.9769	999.8837	1062.9136	1096.2313	1150.5585	1160.5595	1189.3104	1217.5944	1266.3341	1310.788	1339.3715	1365.197	1408.4652	1442.1203	1451.183	1777.9607	3040.5902	3055.7269	3079.9603	3115.3944	3750.2855	3811.2308	3826.6958
ON=C1CC(O)C1O	ON=C1C[C@@H](O)[C@H]1O	
InChI=1S/C4H7NO3/c6-3-1-2(5-8)4(3)7/h3-4,6-8H,1H2	InChI=1S/C4H7NO3/c6-3-1-2(5-8)4(3)7/h3-4,6-8H,1H2/t3-,4+/m1/s1
