14
gdb 997	4.06611	3.26467	1.83192	1.1867	59.45	-0.1787	0.0612	0.24	669.783	0.114073	-324.60605	-324.599064	-324.59812	-324.637077	25.178	
C	-0.0150112754	 1.4504664359	 0.0179793565	-0.335414
N	-0.0205860143	 0.0032590618	 0.0003386331	-0.029866
C	-0.0840896892	-0.8055407429	-1.1235607185	-0.116367
C	 0.0007418086	-2.1106185115	-0.7162828354	-0.143803
C	 0.1293005938	-2.1173023205	 0.706829271	-0.303199
C	 0.1146913555	-0.7993264593	 1.0980039885	 0.361778
O	 0.2075977001	-0.1884570043	 2.3107832032	-0.443072
H	 1.0039165998	 1.8550705222	 0.0311174635	 0.135395
H	-0.5280336901	 1.8197550731	-0.8724137567	 0.135414
H	-0.5404834382	 1.8121671065	 0.9040191123	 0.150677
H	-0.1882967026	-0.36486103	-2.1015636033	 0.108134
H	-0.032898814	-2.976809795	-1.3589379902	 0.090587
H	 0.2137580293	-2.9752954839	 1.3558509971	 0.082913
H	 0.2290364866	-0.8713993921	 2.9872276089	 0.306825
65.2047	160.4057	222.6549	285.1236	295.1059	461.1753	610.5578	626.7346	654.3086	687.063	712.0634	746.0027	807.659	907.0654	1023.8101	1067.4285	1110.0629	1144.9897	1156.0759	1249.167	1300.7692	1333.1967	1393.4591	1453.0761	1487.256	1512.0386	1531.7132	1567.3564	1608.0938	3031.716	3104.0576	3141.2784	3239.1797	3251.7088	3272.0749	3852.7191
CN1C=CC=C1O	Cn1cccc1O	
InChI=1S/C5H7NO/c1-6-4-2-3-5(6)7/h2-4,7H,1H3	InChI=1S/C5H7NO/c1-6-4-2-3-5(6)7/h2-4,7H,1H3
