16
gdb 4879	4.98014	1.34716	1.13046	3.7852	68.61	-0.1887	0.0335	0.2222	1056.8851	0.130965	-379.953358	-379.945394	-379.94445	-379.985973	29.056	
C	-0.0056886196	 1.5550418367	 0.1982928516	-0.372076
C	-0.0310392285	 0.0421417764	-0.0828274882	-0.305527
C	-1.4033718378	-0.5398517295	-0.0991182287	 0.318094
C	-2.1114329536	-1.1117907521	-1.0813465229	-0.145233
O	-3.3619581621	-1.4936912823	-0.6159341923	-0.215313
C	-3.4438873015	-1.1506537282	 0.7190021133	 0.468175
N	-4.4170620714	-1.337433757	 1.5094251898	-0.610509
N	-2.2376869082	-0.5560501252	 1.0237356176	-0.387607
H	 1.0225335685	 1.927803432	 0.2008752102	 0.122295
H	-0.5690411222	 2.1011214553	-0.5636747514	 0.131033
H	-0.4482060668	 1.7907421827	 1.1713024845	 0.119548
H	 0.434936676	-0.1634843416	-1.0515884801	 0.121764
H	 0.5781686706	-0.4776525718	 0.6692028828	 0.116569
H	-1.8947509245	-1.316140205	-2.1146441459	 0.144329
H	-5.1846368587	-1.7987094714	 1.0289995872	 0.222935
H	-2.0171270701	-0.2401796688	 1.9505399725	 0.271525
75.7948	106.8741	163.6794	203.1183	295.9534	342.359	405.154	480.7238	593.4414	648.4143	695.115	711.5859	751.7041	752.6315	788.8909	922.3947	956.7704	1023.6112	1051.7858	1076.6503	1091.0688	1104.9976	1226.4469	1247.7437	1290.5423	1351.7255	1371.6952	1411.1954	1436.1059	1479.0552	1496.9025	1505.5673	1715.0572	1791.1249	3017.0724	3041.941	3078.8481	3112.9663	3120.7462	3300.2833	3543.3793	3705.9113
CCC1=COC(=N)N1	CCC1=CO[C@@H]([NH])N1	
InChI=1S/C5H8N2O/c1-2-4-3-8-5(6)7-4/h3H,2H2,1H3,(H2,6,7)	InChI=1S/C5H9N2O/c1-2-4-3-8-5(6)7-4/h3,5-7H,2H2,1H3/t5-/m0/s1
