12
gdb 909	5.72339	2.70335	1.8361	6.5185	58.94	-0.2147	-0.0104	0.2043	636.0533	0.093386	-323.433262	-323.427849	-323.426905	-323.462306	20.814	
O	 0.0032285109	-0.0867591538	 0.003108413	-0.399865
C	-0.0134020816	 1.139798316	 0.0105404477	 0.375307
C	-1.24957051	 1.9303880939	 0.0303615015	-0.240721
C	-1.2327753959	 3.2826965447	 0.0365008513	 0.030945
N	-0.0519447188	 3.9785807542	 0.0238705385	-0.313068
C	 1.1473336935	 3.3151629415	 0.0042741208	 0.030945
C	 1.2008294295	 1.9638133806	-0.0028173872	-0.240721
H	-2.1925706517	 1.397677858	 0.040358216	 0.111948
H	-2.1303847161	 3.8898939438	 0.0513618699	 0.132416
H	-0.0655930171	 4.9839143955	 0.0286687521	 0.268451
H	 2.0281230701	 3.9466193046	-0.0049420039	 0.132416
H	 2.1579314116	 1.4570217609	-0.0185489196	 0.111948
165.4921	421.6283	425.533	452.982	517.839	527.0356	621.3694	732.1017	810.1279	814.4465	868.303	960.917	968.6116	999.2653	1017.5261	1071.2638	1202.4263	1239.3874	1260.1809	1409.1534	1434.4276	1532.0045	1625.7152	1678.6193	1736.5465	3195.7251	3196.5103	3217.726	3219.2773	3669.4044
O=C1C=CNC=C1	O=c1cc[nH]cc1	
InChI=1S/C5H5NO/c7-5-1-3-6-4-2-5/h1-4H,(H,6,7)	InChI=1S/C5H5NO/c7-5-1-3-6-4-2-5/h1-4H,(H,6,7)
