14
gdb 3282	5.44722	2.57433	2.09719	3.725	57.35	-0.2428	0.0286	0.2714	635.9149	0.115405	-324.582824	-324.577036	-324.576092	-324.612389	22.089	
O	-0.016214644	 0.0319723121	 0.0893501933	-0.357748
C	 0.0098036268	 1.2291248493	-0.0034344228	 0.415934
N	-0.9917847795	 2.1854210875	-0.0334736822	-0.320214
C	-0.0907355701	 3.3388955198	-0.0140792539	 0.025412
C	 0.3628677258	 3.8082482415	 1.398156922	-0.228934
C	 1.5372471956	 2.7838868544	 1.3619421865	-0.229004
C	 1.0982583746	 2.3210878304	-0.0627776618	-0.182876
H	-1.9509663066	 2.1059741331	 0.2780967867	 0.244266
H	-0.290799623	 4.0891428047	-0.7797719288	 0.086905
H	 0.7014209922	 4.8470643685	 1.4134905286	 0.109254
H	-0.3811313376	 3.6740262206	 2.1867307056	 0.104305
H	 2.518868687	 3.2610026444	 1.3661845051	 0.113493
H	 1.5335771047	 2.0001691755	 2.1222078843	 0.12163
H	 1.839351714	 2.2684765683	-0.8573727627	 0.097575
121.18	207.4306	377.6508	459.5961	498.188	658.8638	721.4406	745.8314	796.1509	846.1745	859.6212	932.445	951.8229	978.3976	1020.5454	1059.2416	1121.1467	1140.667	1154.8547	1205.7312	1230.3963	1240.9768	1272.9454	1286.6146	1336.7384	1366.3045	1473.1601	1494.0286	1889.3628	3064.3973	3075.7555	3102.5769	3112.8819	3130.0981	3145.0653	3578.6255
O=C1NC2CCC12	O=C1N[C@H]2CC[C@@H]12	
InChI=1S/C5H7NO/c7-5-3-1-2-4(3)6-5/h3-4H,1-2H2,(H,6,7)	InChI=1S/C5H7NO/c7-5-3-1-2-4(3)6-5/h3-4H,1-2H2,(H,6,7)/t3-,4+/m1/s1
