16
gdb 565	8.33933	2.2348	1.94718	1.9413	56.22	-0.2416	0.0778	0.3194	675.7455	0.143134	-271.614305	-271.607578	-271.606634	-271.645328	23.307	
C	 0.0469905977	 1.5174260289	-0.1207120793	-0.380749
C	-0.0066428219	 0.0011459136	 0.0909203719	-0.194057
C	-1.4275360762	-0.5493535327	 0.0998846055	-0.000285
C	-2.1736027722	-0.6346022415	-1.2534449564	-0.074718
O	-2.3243353476	-2.0635615669	-1.1363745459	-0.272175
C	-1.5988036622	-2.0853567299	 0.1094426071	-0.089668
H	 1.0785334686	 1.8819764921	-0.1297246486	 0.116089
H	-0.4132262314	 1.8022806144	-1.073366887	 0.11931
H	-0.4877632829	 2.0467721376	 0.675710994	 0.116011
H	 0.5682428221	-0.5040613201	-0.6966866612	 0.100258
H	 0.4829742101	-0.2559566006	 1.039445946	 0.098163
H	-2.0170931523	-0.051526158	 0.8758643685	 0.075709
H	-3.1425700134	-0.1238808919	-1.3123836805	 0.098836
H	-1.574293574	-0.3561516403	-2.1320759546	 0.094423
H	-0.6626536565	-2.6555992836	 0.0300788109	 0.094802
H	-2.198850578	-2.5044887813	 0.9266638296	 0.098051
49.9576	112.9526	203.8645	242.4521	387.8624	416.3477	722.7862	793.5439	862.0376	893.7978	949.3128	974.4473	987.8563	1020.9595	1043.3284	1107.6966	1139.2613	1155.8522	1164.3693	1211.6591	1263.4785	1298.2009	1311.7361	1336.6445	1379.6753	1402.9669	1412.8373	1485.8796	1500.1384	1506.333	1512.8585	1538.2119	2993.2754	3003.6971	3015.1082	3030.7688	3037.2477	3043.5423	3044.7072	3068.8741	3096.7348	3105.3129
CCC1COC1	CCC1COC1	
InChI=1S/C5H10O/c1-2-5-3-6-4-5/h5H,2-4H2,1H3	InChI=1S/C5H10O/c1-2-5-3-6-4-5/h5H,2-4H2,1H3
