19
gdb 1107	3.14334	2.26158	1.89442	1.6833	63.11	-0.2613	0.0648	0.3261	803.23	0.168225	-348.061993	-348.052811	-348.051867	-348.094469	34.301	
C	 0.0687664215	 1.5133794374	 0.1958489734	-0.42685
C	 0.0007611663	 0.0006409357	 0.0015399136	 0.142012
O	-1.3372444944	-0.4824132115	 0.0950205757	-0.438429
C	 0.6796188943	-0.5044065759	-1.3011719735	 0.350574
C	 0.7016195343	-2.0373002145	-1.300885695	-0.425813
C	-0.0166104688	 0.0251910122	-2.5630161733	-0.432241
O	 2.0161764991	 0.0067815101	-1.2249956861	-0.467919
H	 1.1007009242	 1.8632500598	 0.134278303	 0.143711
H	-0.5131461787	 2.0419721505	-0.5692481157	 0.102953
H	-0.3428121315	 1.7790497356	 1.1735840316	 0.118293
H	 0.5358082039	-0.4794389965	 0.8294496878	 0.090118
H	-1.901754334	 0.1198902025	-0.4001733678	 0.279826
H	-0.3116718446	-2.4385417164	-1.2278989382	 0.134588
H	 1.1595382213	-2.4196927302	-2.2211266744	 0.094867
H	 1.2833469139	-2.4045052847	-0.4500427713	 0.11791
H	 0.0336682879	 1.1157847643	-2.6143473327	 0.121459
H	 0.4695755282	-0.3744774712	-3.459956998	 0.106132
H	-1.0656471435	-0.2861108238	-2.5972195913	 0.112556
H	 2.5214381006	-0.3815428434	-1.9465407878	 0.276252
83.7555	215.9844	235.9003	245.2265	259.1414	262.1975	285.5709	294.435	343.4629	360.2169	421.242	463.968	494.32	558.0775	719.1507	865.413	919.1906	927.9485	975.2653	996.1735	1045.8152	1086.2422	1107.4852	1136.8629	1215.0132	1224.8375	1301.0956	1356.9466	1383.5794	1392.2693	1398.2364	1412.3023	1415.2219	1479.566	1487.6094	1494.1639	1497.8778	1506.3717	1515.7411	3028.0471	3030.9876	3036.4963	3042.7333	3093.867	3099.3342	3102.2007	3121.8838	3133.1653	3142.7933	3813.0566	3813.7384
CC(O)C(C)(C)O	C[C@@H](O)C(C)(C)O	
InChI=1S/C5H12O2/c1-4(6)5(2,3)7/h4,6-7H,1-3H3	InChI=1S/C5H12O2/c1-4(6)5(2,3)7/h4,6-7H,1-3H3/t4-/m1/s1
