15
gdb 4933	4.93487	1.4791	1.15446	0.8175	64.43	-0.2067	0.0099	0.2166	1011.2391	0.1184	-399.830274	-399.822323	-399.821379	-399.863329	27.531	
C	-0.0409649568	 1.3962675573	-0.1236912574	-0.234907
O	-0.004849493	-0.0202576123	 0.0298080451	-0.272131
C	-1.1932537217	-0.6420332768	 0.0726439391	 0.347364
C	-1.4090512783	-1.9758446499	 0.2120882457	-0.176963
O	-2.7750044107	-2.1578992089	 0.2038594099	-0.171767
C	-3.2964545109	-0.9237151137	 0.06015681	 0.396669
C	-4.7756560998	-0.7901207545	 0.0158583917	-0.485941
N	-2.4029436977	 0.0189252329	-0.023284997	-0.386686
H	 1.0016405787	 1.7172609607	-0.1370596157	 0.128392
H	-0.5328288564	 1.6823711978	-1.0587388114	 0.132504
H	-0.5688425624	 1.8729377824	 0.7083123583	 0.132504
H	-0.7908677146	-2.8471755014	 0.3186471737	 0.142786
H	-5.1979886677	-1.3594339757	-0.8187075994	 0.146757
H	-5.2332279204	-1.1673526626	 0.9363663742	 0.146768
H	-5.0342308983	 0.2620398648	-0.1044453269	 0.154652
63.5808	79.6888	159.4181	202.2051	219.0543	353.4922	356.0127	520.1756	614.9168	645.7024	677.6098	733.3497	751.4618	949.546	996.6102	1048.4701	1063.9412	1082.7417	1133.7054	1180.0071	1205.0233	1231.2886	1344.3698	1365.4264	1412.3829	1475.4652	1476.4882	1481.8552	1482.532	1502.3068	1610.6339	1663.1153	3034.0388	3043.0615	3096.8431	3101.4555	3142.4808	3156.7084	3314.587
COC1=COC(C)=N1	COc1coc(C)n1	
InChI=1S/C5H7NO2/c1-4-6-5(7-2)3-8-4/h3H,1-2H3	InChI=1S/C5H7NO2/c1-4-6-5(7-2)3-8-4/h3H,1-2H3
