16
gdb 2986	3.22634	2.57985	1.68734	2.0062	60.41	-0.2485	-0.0408	0.2077	772.6944	0.135504	-325.753767	-325.746008	-325.745063	-325.786256	27.077	
C	-0.1075316056	 1.5891840067	 0.1031842595	-0.413461
C	 0.0230905012	 0.0677189292	-0.0512013629	-0.077833
C	 0.903876527	-0.5079198163	 1.0517650458	 0.127411
O	 1.446396302	-1.5827311484	 1.0037526783	-0.244053
C	-1.3499583189	-0.6074740674	-0.0806430122	 0.020303
C	-1.5348001876	-2.062059652	 0.122153785	-0.251865
N	-2.0263421441	-1.1036756994	 1.1327844213	-0.324345
H	 0.8724456052	 2.07705114	 0.0937753652	 0.122291
H	-0.6996943809	 2.0112373064	-0.7132731733	 0.128813
H	-0.6062684205	 1.8478312164	 1.0435501795	 0.130642
H	 0.522523793	-0.1691490176	-0.9998022205	 0.113033
H	 1.0198581886	 0.1443645214	 1.9492987753	 0.082775
H	-2.0364298314	-0.1037367594	-0.7598553274	 0.095404
H	-2.3140960055	-2.5867112842	-0.4232623114	 0.11866
H	-0.6538333138	-2.6528785469	 0.353580532	 0.141773
H	-1.3926262389	-1.0963734588	 1.9292789757	 0.230454
58.613	74.6999	205.1861	214.1635	245.0412	304.5255	405.703	506.527	548.0731	743.1833	832.3725	880.0402	928.2332	954.452	961.7443	997.3905	1058.721	1107.1232	1120.8219	1154.1475	1162.4433	1196.6276	1252.9533	1301.1333	1309.0182	1319.141	1395.39	1410.2103	1436.0832	1497.5975	1499.4723	1512.7454	1823.1213	2852.6317	3028.732	3036.5428	3104.5888	3110.5017	3116.7511	3118.5787	3207.9143	3486.577
CC(C=O)C1CN1	C[C@@H](C=O)[C@H]1CN1	
InChI=1S/C5H9NO/c1-4(3-7)5-2-6-5/h3-6H,2H2,1H3	InChI=1S/C5H9NO/c1-4(3-7)5-2-6-5/h3-6H,2H2,1H3/t4-,5+/m0/s1
