11
gdb 4660	6.7742	1.35993	1.13257	6.3308	59.54	-0.2352	-0.0187	0.2165	936.2925	0.074543	-393.639005	-393.63258	-393.631635	-393.669582	23.769	
O	 0.1131096037	 1.3000789032	 0.1391574596	-0.419315
C	 0.0748382769	-0.0311567618	 0.0158774978	 0.45442
N	 0.1039161624	-0.7240078244	-1.0862327936	-0.402442
C	 0.0398149877	-2.0477159637	-0.6594602712	 0.17537
C	-0.0267660306	-2.1168831251	 0.7087323037	-0.166877
N	-0.0035851992	-0.8052052044	 1.1344479463	-0.290108
C	 0.0461750544	-3.1412489283	-1.5631307859	 0.220883
N	 0.0502378646	-4.0463804179	-2.2851164396	-0.342702
H	 0.167210046	 1.6616812914	-0.755142529	 0.324368
H	-0.0862484333	-2.9484260693	 1.3890546499	 0.160212
H	-0.0374455525	-0.4719034198	 2.0834521422	 0.28619
150.8924	160.8498	314.3255	414.6152	420.5034	496.4975	540.2173	546.3725	590.0979	678.0494	737.3734	752.2878	756.9656	997.5297	1035.4929	1104.8415	1194.1631	1270.9048	1298.8831	1386.8452	1533.7254	1579.975	1645.0418	2351.2657	3294.0497	3668.6595	3800.3398
OC1=NC(=CN1)C#N	Oc1nc(c[nH]1)C#N	
InChI=1S/C4H3N3O/c5-1-3-2-6-4(8)7-3/h2H,(H2,6,7,8)	InChI=1S/C4H3N3O/c5-1-3-2-6-4(8)7-3/h2H,(H2,6,7,8)
