15
gdb 2668	18.22343	0.83066	0.80631	1.3471	79.35	-0.2398	-0.0084	0.2314	1383.0279	0.122892	-271.339346	-271.331067	-271.330123	-271.371946	29.032	
C	-0.0246065775	 1.5693400847	 0.0013698957	-0.381982
C	-0.0029502509	 0.0398644492	-0.0052258783	-0.157686
C	 0.7320892184	-0.5381478579	 1.2237884586	-0.372048
C	 0.7670951474	-1.991821437	 1.2418133087	 0.345866
C	 0.7858499398	-3.20225216	 1.2394229756	-0.208526
C	 0.8065685082	-4.5629184939	 1.2360827416	 0.290249
C	 0.8251334498	-5.7705422773	 1.2328857873	-0.557663
H	 0.9902811294	 1.9820728755	-0.0074224015	 0.118062
H	-0.549298833	 1.9579620353	-0.8762887274	 0.11831
H	-0.5324186469	 1.9566339149	 0.8916264217	 0.118059
H	-1.02516278	-0.3534290348	-0.0222644098	 0.114606
H	 0.48560679	-0.3281851051	-0.9139285475	 0.114605
H	 1.7595207606	-0.1496115095	 1.2500818313	 0.135061
H	 0.2491809555	-0.174915702	 2.1414659989	 0.135065
H	 0.8413866492	-6.8318617721	 1.2295623951	 0.188021
72.5896	78.4458	166.0914	217.4036	232.721	322.1917	359.4539	453.5139	527.0018	531.3038	588.7463	592.0301	738.3215	743.2119	871.7955	890.9872	1040.9502	1105.4768	1121.4844	1178.4391	1258.3929	1308.4808	1323.4746	1381.6005	1412.4576	1467.1122	1491.2997	1497.5366	1507.8415	2181.6113	2364.069	3008.7892	3031.1024	3036.9998	3045.4795	3077.0206	3102.9867	3108.1029	3506.7768
CCCC#CC#C	CCCC#CC#C	
InChI=1S/C7H8/c1-3-5-7-6-4-2/h1H,4,6H2,2H3	InChI=1S/C7H8/c1-3-5-7-6-4-2/h1H,4,6H2,2H3
