18
gdb 1085	4.30148	1.69852	1.68386	3.9293	67.57	-0.3136	0.0317	0.3453	854.0061	0.158246	-289.875063	-289.866599	-289.865655	-289.907126	31.164	
C	-0.0439601668	 1.5519737271	 0.0473594572	-0.407906
C	 0.000878745	 0.0148356327	 0.0345291148	 0.251071
C	 0.7225419969	-0.5031542082	 1.2898609807	-0.407905
C	-1.4290113855	-0.5493826837	-0.0166118856	-0.40915
C	 0.7425559523	-0.4803900938	-1.2421096719	-0.344649
C	 2.1269515138	-0.0216409772	-1.3376074347	 0.269632
N	 3.220435108	 0.3483260826	-1.3990398816	-0.322372
H	 0.9629163537	 1.9799502856	 0.0599648934	 0.138509
H	-0.5662275333	 1.9415339771	-0.8334949678	 0.111999
H	-0.5740248147	 1.9110744918	 0.9352025614	 0.116752
H	 0.2025618976	-0.1704506177	 2.1938056834	 0.116749
H	 0.7537742505	-1.5982180238	 1.3067162045	 0.111999
H	 1.7517144951	-0.1349410955	 1.3383435797	 0.13852
H	-1.9650779483	-0.1998835319	-0.905864194	 0.113668
H	-1.4261566605	-1.64484087	-0.0324991376	 0.113666
H	-1.9983462335	-0.2306228656	 0.8620905182	 0.119545
H	 0.7430475997	-1.5765211603	-1.2696985464	 0.144949
H	 0.2078047402	-0.1414894592	-2.1373381839	 0.144922
88.7894	148.896	216.2473	270.2004	272.427	309.0477	321.9917	392.0974	403.4345	404.1425	406.746	560.7916	749.5786	892.6596	893.1126	940.9675	943.5242	965.6168	965.8509	1052.5174	1066.5094	1189.2639	1228.6634	1258.8566	1306.3674	1336.3479	1403.2022	1405.7541	1436.3468	1461.375	1481.0685	1486.2127	1487.1507	1506.963	1508.9898	1518.4617	2357.0897	3026.2315	3030.1545	3033.2731	3039.0157	3074.7828	3093.4603	3099.1797	3099.2872	3105.2475	3109.7525	3114.1636
CC(C)(C)CC#N	CC(C)(C)CC#N	
InChI=1S/C6H11N/c1-6(2,3)4-5-7/h4H2,1-3H3	InChI=1S/C6H11N/c1-6(2,3)4-5-7/h4H2,1-3H3
