15
gdb 3219	3.49249	3.22765	2.23556	1.8625	55.89	-0.2503	0.0766	0.3269	642.279	0.124718	-345.61264	-345.606036	-345.605092	-345.642905	24.942	
C	-0.1616885074	 1.5569715297	-0.0185419817	-0.405586
C	-0.0096885495	 0.0439393121	-0.0189883042	-0.057529
C	 0.7388076882	-0.6099468728	-1.1871804029	 0.025212
O	 2.0999410434	-0.1461365785	-1.1320759873	-0.26209
C	 1.7167145652	-1.2534221218	-0.2962586968	-0.019283
C	 1.0800313427	-0.6079652217	 0.9441768032	 0.112064
O	 1.904527728	 0.240603603	 1.691746424	-0.428032
H	 0.7776118157	 2.0450222994	-0.2921507455	 0.122102
H	-0.9262361598	 1.8749322121	-0.7351684964	 0.114164
H	-0.4533198783	 1.9177130683	 0.9722592984	 0.127473
H	-0.9741829586	-0.4486325532	 0.1437488042	 0.077566
H	 0.3719360193	-0.9268820521	-2.1566711597	 0.105085
H	 2.2877495335	-2.1691366366	-0.3994533494	 0.105685
H	 0.6368451432	-1.3254549625	 1.6385752003	 0.091646
H	 2.4266172246	 0.7396937246	 1.0506217237	 0.291522
131.1612	186.8386	232.5718	269.376	429.2952	489.3899	574.083	635.1192	714.3908	781.6331	856.6484	858.4327	880.1578	903.5929	993.2231	1022.115	1056.9387	1070.63	1133.2186	1139.217	1197.2346	1228.0738	1243.6905	1271.1205	1306.8325	1359.3305	1377.18	1410.3672	1439.8492	1489.6934	1504.0473	3039.731	3053.7259	3092.2568	3105.7814	3119.7758	3178.436	3193.925	3775.9097
CC1C2OC2C1O	C[C@H]1[C@H]2O[C@H]2[C@H]1O	
InChI=1S/C5H8O2/c1-2-3(6)5-4(2)7-5/h2-6H,1H3	InChI=1S/C5H8O2/c1-2-3(6)5-4(2)7-5/h2-6H,1H3/t2-,3+,4-,5+/m1/s1
