11
gdb 510	31.68669	1.43776	1.38714	4.1826	49.06	-0.2771	-0.0239	0.2532	807.2438	0.082782	-322.442708	-322.436104	-322.43516	-322.473001	21.182	
C	-0.0227381171	 1.4197816218	-0.0764810033	-0.321148
N	-0.050734431	-0.0002635062	-0.3637539178	-0.181548
C	-1.0765615766	-0.6390956778	-0.0424126831	 0.136368
O	-1.1416035167	-1.9849938892	-0.2976165029	-0.153202
C	-2.2726233376	-2.6519225312	 0.0648506791	 0.185676
O	-2.4049697714	-3.8189591826	-0.1224048592	-0.252342
H	 0.8339138313	 1.6380045969	 0.5696342749	 0.142375
H	 0.1316747777	 1.9713509143	-1.009683786	 0.142376
H	-0.9354110205	 1.7988419951	 0.4093575718	 0.104827
H	-1.972119627	-0.2273504465	 0.4427486071	 0.100048
H	-3.0264157812	-1.9971031846	 0.5383371094	 0.096572
96.9396	145.6706	182.9062	214.732	326.9053	396.6428	490.2901	721.3212	967.8865	1033.4517	1037.1681	1129.7507	1140.3608	1171.2776	1195.9003	1386.284	1444.6009	1447.9327	1479.0827	1503.5707	1778.1294	1894.633	2974.9746	2980.9388	3026.1839	3074.4466	3095.203
CN=COC=O	CN=COC=O	
InChI=1S/C3H5NO2/c1-4-2-6-3-5/h2-3H,1H3	InChI=1S/C3H5NO2/c1-4-2-6-3-5/h2-3H,1H3
