13
gdb 2983	5.24727	1.88278	1.61422	1.8571	54.04	-0.2647	-0.0043	0.2604	753.2528	0.102159	-340.606711	-340.599744	-340.5988	-340.637823	24.64	
O	-0.8076216213	 0.8495857163	 0.1080252607	-0.412711
C	-0.126532937	-0.3729698874	-0.1119686614	-0.04004
C	 0.9584493837	-0.2177261992	-1.0990407647	 0.249532
N	 1.8247348388	-0.0710596454	-1.8495572517	-0.308393
C	 0.4114679692	-1.0032329759	 1.1740831953	 0.015586
C	 0.9153840126	-0.1546763402	 2.2772987429	-0.238193
N	-0.3719067539	-0.8657088641	 2.3998518758	-0.321685
H	-0.1571197846	 1.5546286526	 0.2013893434	 0.305526
H	-0.8771571913	-1.0484603512	-0.5401041701	 0.151081
H	 0.8495807001	-1.9862474542	 1.0168784311	 0.117046
H	 1.7118217033	-0.5205751721	 2.9174738554	 0.13327
H	 0.8953741654	 0.9250068532	 2.154881202	 0.10439
H	-1.124263305	-0.2001964224	 2.2269800612	 0.244591
84.4742	152.9003	233.6874	266.5413	327.0352	357.2561	483.7556	568.5762	646.9821	792.9657	868.9341	891.4031	960.3293	986.6047	1006.292	1076.0195	1121.8524	1153.3449	1200.5663	1263.5709	1280.8185	1309.3542	1317.7873	1403.6976	1423.8534	1509.4571	2356.1376	3047.71	3115.561	3138.9034	3201.232	3483.617	3811.5433
OC(C#N)C1CN1	O[C@@H](C#N)[C@H]1CN1	
InChI=1S/C4H6N2O/c5-1-4(7)3-2-6-3/h3-4,6-7H,2H2	InChI=1S/C4H6N2O/c5-1-4(7)3-2-6-3/h3-4,6-7H,2H2/t3-,4+/m1/s1
