13
gdb 3121	6.04295	2.211	1.90681	4.5343	59.04	-0.2626	-0.0035	0.2591	671.8379	0.103247	-303.463214	-303.457301	-303.456357	-303.492835	22.067	
N	 0.1064723118	-1.1433557057	 0.0080281857	-0.334824
C	 0.0464309766	 0.0120249699	-0.009375262	 0.216289
C	-0.0745175147	 1.4383976467	-0.0173811494	 0.202908
C	 0.2814243507	 2.2720785578	-1.1932218812	-0.261575
N	 1.1318327562	 2.3860146412	-0.0054769124	-0.144166
C	 0.3650440322	 3.256204459	 0.9618605777	-0.151721
C	-0.821617364	 2.2614650811	 1.0365462189	-0.306297
H	 0.7720592815	 1.7738390842	-2.0226894923	 0.14786
H	-0.3735589816	 3.0973975444	-1.4672977669	 0.124146
H	 0.921245425	 3.3494071746	 1.8950055362	 0.129803
H	 0.1566404082	 4.2536174021	 0.5637429418	 0.117824
H	-1.8161682446	 2.6113873211	 0.7498642824	 0.120443
H	-0.8844682373	 1.7533430537	 1.9989798115	 0.139311
162.2241	178.5662	292.464	444.0476	521.9062	563.8838	591.2894	749.7018	779.8849	798.5869	865.4675	940.3333	972.7549	1001.451	1085.6584	1104.7611	1135.5478	1192.3685	1220.2738	1233.8337	1263.9382	1311.9842	1348.0625	1488.3119	1491.4808	1514.2207	2348.9318	3061.9657	3074.7813	3102.8661	3125.4666	3143.7279	3209.6162
N#CC12CN1CC2	N#C[C@]12CN1CC2	
InChI=1S/C5H6N2/c6-3-5-1-2-7(5)4-5/h1-2,4H2	InChI=1S/C5H6N2/c6-3-5-1-2-7(5)4-5/h1-2,4H2/t5-,7?/m1/s1
