18
gdb 1794	3.70763	2.01463	1.9186	1.9572	64.2	-0.2295	0.0816	0.311	796.9409	0.158741	-326.944158	-326.935934	-326.93499	-326.976232	30.119	
C	-0.3117264494	 1.3683929376	 0.1099611954	-0.315677
N	-0.0207507908	-0.0537957621	 0.2257635789	-0.118582
C	 1.3077313444	-0.5065236249	-0.1840907391	-0.29923
C	 0.9116403099	-0.5499317878	 1.2532182537	 0.310472
C	 1.5536472347	 0.3758058075	 2.2664213731	-0.464972
C	 0.4107503044	-1.8625146949	 1.8351438642	-0.1009
O	-0.7370616636	-1.6544482456	 2.6415175799	-0.423709
H	 0.5656231712	 2.0267839894	 0.2000151667	 0.103138
H	-0.7647463146	 1.5516897231	-0.8698363169	 0.12562
H	-1.0372182005	 1.6589448816	 0.8768058994	 0.121939
H	 1.3457663653	-1.4120716861	-0.7856270339	 0.110464
H	 2.029447569	 0.2570052004	-0.4739045176	 0.103723
H	 1.8219080634	 1.3466905935	 1.8456361811	 0.115496
H	 0.8748932096	 0.5340426983	 3.1105141667	 0.135787
H	 2.4700010827	-0.0784476359	 2.6584434051	 0.122194
H	 0.2000093629	-2.5676396588	 1.0180182705	 0.086028
H	 1.1682903449	-2.3131643167	 2.4858396766	 0.101834
H	-1.3858218235	-1.2419653186	 2.0582321963	 0.286375
80.7785	172.1201	182.0233	188.4436	266.0609	298.1899	354.3204	437.5356	459.2916	478.9487	534.7691	708.5546	790.8506	881.1932	919.9793	951.3225	1003.5492	1055.7286	1067.8937	1096.5173	1125.0322	1152.8931	1171.8819	1200.4827	1224.9969	1308.2578	1359.4434	1398.6405	1416.5588	1429.0539	1450.4978	1483.4532	1486.076	1497.5699	1501.2544	1512.7268	1514.5752	2983.9694	2996.2595	3040.4206	3065.599	3071.494	3081.5969	3098.2448	3100.789	3129.8726	3164.8137	3784.7013
CN1CC1(C)CO	CN1C[C@]1(C)CO	
InChI=1S/C5H11NO/c1-5(4-7)3-6(5)2/h7H,3-4H2,1-2H3	InChI=1S/C5H11NO/c1-5(4-7)3-6(5)2/h7H,3-4H2,1-2H3/t5-,6?/m1/s1
