14
gdb 4999	3.30999	2.3834	1.39746	3.2488	68.25	-0.2252	-0.0514	0.1738	836.2197	0.109099	-378.78996	-378.783172	-378.782227	-378.820896	25.46	
C	-0.0312853543	 1.4987267794	-0.0049323594	-0.457932
C	-0.0090370223	 0.0016232469	-0.0364493942	 0.211593
N	-0.0420068778	-0.6346140748	-1.1711860698	-0.287802
C	-0.020746857	-2.0059259409	-1.1804657361	-0.06424
C	 0.0340486776	-2.7286497074	-0.0344850485	-0.00109
N	 0.0687965823	-2.0665845524	 1.1595717085	-0.334844
C	 0.0512790428	-0.6772643371	 1.2757908087	 0.369267
O	 0.0839072704	-0.1236946001	 2.3615961955	-0.380288
H	 0.8582715194	 1.884641392	 0.5050828388	 0.144572
H	-0.0775454468	 1.8915733427	-1.0208681512	 0.133406
H	-0.8893053258	 1.8572365439	 0.5743457672	 0.1446
H	-0.0497143218	-2.4913741606	-2.1476135967	 0.118043
H	 0.0524549898	-3.8107305684	 0.0006102642	 0.137518
H	 0.1099329233	-2.5714440833	 2.0346873331	 0.267197
133.792	141.714	265.4119	290.9805	435.4266	492.3814	541.5328	552.8088	572.4659	717.1914	724.4206	791.2127	814.2113	905.6243	920.4971	981.3694	1049.2169	1095.0066	1125.7337	1215.813	1253.1323	1304.1799	1403.1515	1414.4357	1463.7155	1467.5355	1490.8032	1583.4927	1654.6226	1775.2503	3040.3035	3091.1664	3154.1839	3203.6812	3221.9334	3600.7252
CC1=NC=CNC1=O	Cc1ncc[nH]c1=O	
InChI=1S/C5H6N2O/c1-4-5(8)7-3-2-6-4/h2-3H,1H3,(H,7,8)	InChI=1S/C5H6N2O/c1-4-5(8)7-3-2-6-4/h2-3H,1H3,(H,7,8)
