15
gdb 1700	4.12906	2.34613	1.95474	1.7358	62.67	-0.2515	0.0292	0.2807	719.5951	0.123209	-308.466631	-308.459272	-308.458327	-308.49795	26.942	
C	-0.2257004463	 1.6474707495	-0.0305946551	-0.431832
C	 0.0191503185	 0.1425900948	-0.0523107732	 0.235486
C	 0.8365131436	-0.4147364654	-1.2584727342	-0.319408
C	 1.8572272007	-0.8482680586	-0.1922192362	-0.064866
O	 1.0950511634	-0.2241595215	 0.8625732514	-0.303238
C	-1.2054289902	-0.6010538518	 0.2378192974	 0.342512
C	-2.2166093357	-1.2099726727	 0.4658615847	-0.489893
H	 0.7050580648	 2.1781672405	-0.2489106683	 0.118183
H	-0.9800973708	 1.9240656855	-0.7734837749	 0.126583
H	-0.5819025773	 1.9549703572	 0.9562870271	 0.137633
H	 0.3544701629	-1.2135167165	-1.8206331446	 0.122054
H	 1.1820834601	 0.3616704803	-1.9431796501	 0.113418
H	 1.942585436	-1.9318014506	-0.0458878946	 0.108437
H	 2.8625009279	-0.4203265195	-0.2752257788	 0.105496
H	-3.1064916676	-1.7507581711	 0.6752394594	 0.199435
69.9553	175.2584	186.7295	232.7091	326.6385	387.3107	518.207	546.3749	621.561	631.2256	662.5134	777.3929	862.6163	877.6214	923.5619	975.1193	996.9294	1024.3483	1120.0062	1161.2087	1193.8194	1209.7351	1260.2227	1265.1344	1349.6178	1400.6564	1477.9955	1484.3463	1491.6273	1530.5928	2230.6521	3022.4793	3041.3519	3063.8944	3086.4157	3119.8367	3125.4486	3150.6318	3500.7925
CC1(CCO1)C#C	C[C@]1(CCO1)C#C	
InChI=1S/C6H8O/c1-3-6(2)4-5-7-6/h1H,4-5H2,2H3	InChI=1S/C6H8O/c1-3-6(2)4-5-7-6/h1H,4-5H2,2H3/t6-/m1/s1
