19
gdb 1976	6.6949	1.36325	1.25272	1.3826	67.86	-0.2525	0.0787	0.3311	1004.381	0.171229	-310.912991	-310.905014	-310.90407	-310.945115	29.583	
C	-0.1675544169	 1.5057373787	 0.0518443951	-0.377778
C	 0.1157081992	 0.0036756643	-0.0518717058	-0.190191
C	 0.7643036951	-0.5724585469	 1.2003866255	 0.062511
C	-0.0732931893	-0.6667262451	 2.5106633033	-0.245245
C	 0.5956532002	-2.0250057797	 2.7932090922	 0.148459
O	-0.2747665026	-2.992161768	 3.3344398322	-0.432462
C	 0.9872673783	-2.10929174	 1.2920661958	-0.289437
H	 0.7567029279	 2.0728886743	 0.2099724935	 0.111875
H	-0.6398858803	 1.8869413674	-0.8588819265	 0.110719
H	-0.8369062011	 1.7250968252	 0.8907155889	 0.119261
H	-0.8208820392	-0.5353854164	-0.2480141683	 0.091641
H	 0.7656928128	-0.1896579728	-0.9159315132	 0.092383
H	 1.7059416629	-0.0461563931	 1.399216868	 0.0649
H	 0.0223082177	 0.121250776	 3.2607726879	 0.094931
H	-1.1340534997	-0.8237657166	 2.2878393885	 0.107777
H	 1.4893130358	-1.8996107278	 3.4223748818	 0.062481
H	 0.2238246572	-3.803521165	 3.47424903	 0.27976
H	 0.2126914249	-2.6520079261	 0.7399043589	 0.101149
H	 1.969043127	-2.5113733986	 1.0276689222	 0.087267
81.3931	106.5721	194.486	242.22	262.4192	348.6057	395.8397	424.6115	461.43	584.9687	766.0423	792.1889	811.2918	918.6829	929.7082	971.8407	977.8577	1016.808	1024.7737	1076.247	1121.5448	1133.9821	1180.3324	1218.044	1220.0956	1254.5694	1268.7729	1272.9978	1304.567	1328.6741	1347.2361	1390.6616	1410.5486	1430.9297	1469.8705	1484.7588	1499.6248	1501.4134	1507.7077	2986.7649	3010.1029	3024.4295	3030.1105	3044.7376	3046.0648	3054.0028	3096.2016	3102.0808	3104.1068	3113.591	3814.5096
CCC1CC(O)C1	CC[C@H]1C[C@@H](O)C1	
InChI=1S/C6H12O/c1-2-5-3-6(7)4-5/h5-7H,2-4H2,1H3	InChI=1S/C6H12O/c1-2-5-3-6(7)4-5/h5-7H,2-4H2,1H3/t5-,6+
