19
gdb 3173	5.05436	2.17854	1.84194	0.217	70.68	-0.2584	0.093	0.3514	771.873	0.173923	-273.789697	-273.783023	-273.782079	-273.820672	26.286	
C	 0.0712858062	 1.524241748	-0.0030095478	-0.313581
C	 1.3226387522	 0.6790293196	-0.0074442927	-0.313531
C	-0.0333352613	 0.0204053752	 0.003416937	 0.404135
C	-0.5157455759	-0.7408034653	 1.2503166127	-0.277154
C	-1.5826452094	-1.7181935144	 0.7209926935	-0.19703
C	-1.0701279341	-2.0748499489	-0.6837753669	-0.197048
C	-0.5683027095	-0.7250786187	-1.2314268232	-0.277111
H	-0.1793491372	 2.0615232745	 0.9065475664	 0.105203
H	-0.191717949	 2.0504346947	-0.9158956369	 0.104591
H	 1.9079028313	 0.6371762807	-0.9209531086	 0.105202
H	 1.9157164758	 0.6415594556	 0.9015478276	 0.104588
H	 0.3151900279	-1.3059762556	 1.6913310104	 0.096256
H	-0.8990811364	-0.0749251633	 2.0296495797	 0.092194
H	-1.7226003889	-2.5894550683	 1.3672181509	 0.090651
H	-2.5520047532	-1.2102853189	 0.6416730467	 0.09679
H	-0.2350876991	-2.7820235075	-0.6029190809	 0.096789
H	-1.830013627	-2.5383606319	-1.3194048176	 0.090644
H	-1.407397402	-0.1712113728	-1.6713596367	 0.09624
H	 0.1863179194	-0.8389734827	-2.0158191935	 0.092173
37.5356	244.8832	314.2179	314.6487	403.8539	482.3955	555.8131	708.9837	777.6432	836.7245	845.125	862.008	910.967	912.8845	931.7022	963.5194	973.7876	997.5117	1032.1222	1052.7266	1077.5341	1089.5669	1166.5768	1184.1637	1189.2101	1231.5791	1249.8379	1281.9228	1308.4929	1316.7861	1344.7041	1344.8344	1379.4332	1467.2814	1486.3257	1491.8939	1493.7828	1502.8765	1512.7241	3020.677	3022.2191	3027.1193	3033.1592	3073.8019	3075.3577	3086.5079	3093.5459	3114.1368	3118.8551	3191.5623	3207.6893
C1CC11CCCC1	C1CC21CCCC2	
InChI=1S/C7H12/c1-2-4-7(3-1)5-6-7/h1-6H2	InChI=1S/C7H12/c1-2-4-7(3-1)5-6-7/h1-6H2
