14
gdb 849	7.07262	1.9847	1.56256	1.9695	60.5	-0.1637	0.0612	0.225	757.9357	0.115518	-320.778636	-320.771439	-320.770495	-320.80942	26.699	
N	 0.1645179049	 1.4066831374	 0.0668892852	-0.609588
C	 0.0037470709	 0.0048680164	 0.0169074699	 0.300887
C	-1.1100722789	-0.8088775296	 0.0223846884	-0.283369
C	-0.6493993625	-2.1617100571	 0.0339319811	 0.269581
N	-1.4800084984	-3.3002192316	 0.1077769055	-0.606919
C	 0.7264450666	-2.1295056133	 0.0245729304	-0.180142
N	 1.1097957039	-0.7955532992	 0.0159920654	-0.266039
H	 0.3735625464	 1.8025099544	-0.8457644001	 0.240709
H	-0.6836951815	 1.8476556697	 0.4010351727	 0.244467
H	-2.1382267417	-0.4788926553	 0.0042672798	 0.071374
H	-2.2981722251	-3.2097414239	-0.482679851	 0.235378
H	-0.9892837894	-4.1446373251	-0.1597950157	 0.232875
H	 1.4548634606	-2.9233894117	 0.0147002889	 0.096857
H	 2.0433201944	-0.4503985711	 0.1512422795	 0.253928
104.7727	180.2878	213.3921	292.0021	309.4492	426.5297	456.5721	594.3543	609.3775	638.4007	662.2986	742.4615	748.9908	806.559	831.6757	989.5435	1011.2769	1102.8178	1114.9566	1165.3255	1203.8748	1303.7285	1334.9436	1452.9183	1498.1032	1564.248	1633.5488	1653.4414	1663.8944	3237.9478	3265.129	3484.2844	3520.8761	3591.9272	3607.8734	3688.5419
NC1=CC(N)=CN1	Nc1cc(N)c[nH]1	
InChI=1S/C4H7N3/c5-3-1-4(6)7-2-3/h1-2,7H,5-6H2	InChI=1S/C4H7N3/c5-3-1-4(6)7-2-3/h1-2,7H,5-6H2
