19
gdb 1972	6.72748	1.36017	1.25615	1.2181	68.05	-0.2607	0.0784	0.3391	1002.5383	0.171293	-310.90878	-310.900748	-310.899803	-310.941019	29.493	
C	-0.0191853618	 1.5911859665	 0.0654334504	-0.406412
C	 0.0613590817	 0.0729323709	 0.0471928574	 0.061577
C	 1.0892985865	-0.6195357124	-0.8941296665	-0.260405
C	 1.3637208708	-1.6573620235	 0.2277952343	 0.063074
C	 2.7890582448	-2.115293617	 0.4487491196	-0.096862
O	 2.8105586259	-2.9513160606	 1.5978160366	-0.423073
C	 0.7291272498	-0.6669183973	 1.2412323696	-0.230036
H	 0.9674755743	 2.0348892365	 0.2428737477	 0.107811
H	-0.3940163093	 1.9836326601	-0.8869267852	 0.111243
H	-0.6893416342	 1.9452247829	 0.8571433303	 0.112834
H	-0.9350410778	-0.347672753	-0.1321329277	 0.069298
H	 0.7380144855	-0.9876849274	-1.8615820553	 0.092694
H	 1.9615850455	 0.0234500234	-1.0637023123	 0.090562
H	 0.7250594288	-2.5386705162	 0.1058032809	 0.076607
H	 3.1504992636	-2.6529312576	-0.4443602779	 0.081102
H	 3.4398541995	-1.2348466549	 0.5847615572	 0.075925
H	 3.7182921791	-3.2282658931	 1.7522965777	 0.28518
H	 1.4961598541	-0.0436397629	 1.7157860407	 0.091
H	 0.0838114031	-1.0751310643	 2.0220076925	 0.097881
76.3705	105.1295	199.9825	239.1808	261.7997	307.0199	382.7353	407.9839	443.7308	602.8423	775.6723	811.8944	894.2134	896.7865	938.182	952.7802	985.0078	1041.1465	1065.7861	1092.2351	1136.4895	1141.5942	1172.8058	1229.3993	1230.0056	1243.4827	1268.9372	1273.0457	1289.2983	1305.3056	1363.7374	1382.9621	1410.6706	1461.0412	1475.6494	1494.2729	1496.4283	1501.2098	1520.4445	2949.1933	2975.3818	3019.7437	3029.8672	3033.0308	3042.0205	3054.3477	3086.9828	3087.534	3096.205	3108.4096	3829.1744
CC1CC(CO)C1	C[C@H]1C[C@@H](CO)C1	
InChI=1S/C6H12O/c1-5-2-6(3-5)4-7/h5-7H,2-4H2,1H3	InChI=1S/C6H12O/c1-5-2-6(3-5)4-7/h5-7H,2-4H2,1H3/t5-,6+
