16
gdb 635	5.81881	2.78085	2.29593	1.7161	56.23	-0.2618	0.0883	0.3501	620.6879	0.142058	-271.61643	-271.609509	-271.608565	-271.646826	24.967	
C	-0.100140041	 1.52536817	 0.1300638841	-0.383704
C	 0.0476906233	 0.0038190552	-0.0406963915	 0.004975
C	 0.8522351671	-0.6064662938	 1.1131602724	-0.400239
C	-1.3307944534	-0.6141254775	-0.2066230996	 0.109617
C	-1.7291085858	-1.9434436504	 0.2727980903	-0.189147
O	-2.1358181088	-0.7619177247	 0.9685109671	-0.237902
H	 0.879115292	 2.0112037541	 0.1807366575	 0.110772
H	-0.6535311633	 1.9696058797	-0.7041169783	 0.110263
H	-0.6430890319	 1.7561041429	 1.0525973811	 0.131295
H	 0.5849544692	-0.1821922122	-0.9819798752	 0.076452
H	 1.7868552397	-0.0569234133	 1.2591262097	 0.111011
H	 0.2795907514	-0.5586596572	 2.044297032	 0.135355
H	 1.1115608601	-1.6521035687	 0.9226157296	 0.110799
H	-1.8888084881	-0.2167108846	-1.0582653639	 0.085254
H	-2.5266673916	-2.4813064569	-0.2388936911	 0.111265
H	-1.0177982188	-2.5724214628	 0.8032975159	 0.113934
84.2305	216.037	222.7359	261.149	286.8013	371.2856	459.6246	583.6266	733.3712	843.4155	887.7312	926.8266	956.1189	977.3817	1010.4226	1076.2114	1120.8023	1153.8974	1162.7076	1182.9565	1203.4181	1297.5738	1336.4235	1367.993	1395.0764	1409.2405	1441.4445	1488.7594	1494.7045	1503.8132	1517.452	1535.0878	3003.324	3031.7808	3040.7228	3074.9801	3088.7823	3100.5782	3106.4318	3108.178	3117.9297	3175.4129
CC(C)C1CO1	CC(C)[C@H]1CO1	
InChI=1S/C5H10O/c1-4(2)5-3-6-5/h4-5H,3H2,1-2H3	InChI=1S/C5H10O/c1-4(2)5-3-6-5/h4-5H,3H2,1-2H3/t5-/m1/s1
