10
gdb 3912	8.50411	2.09995	1.68409	4.4753	52.01	-0.2768	-0.0867	0.19	661.4002	0.067276	-359.31042	-359.304948	-359.304004	-359.33994	18.973	
O	-0.0063226505	-0.0346333448	-0.0008387622	-0.245862
C	 0.0072167834	 1.1706613373	 0.0084065672	 0.079453
C	 1.2225468778	 1.9974592096	 0.0022258536	 0.336846
C	 1.3794535502	 3.354772938	 0.0111233619	-0.303574
C	 2.7856568211	 3.520950022	-0.0022686985	 0.038952
N	 3.4118048066	 2.3660396614	-0.0175388058	-0.107992
O	 2.4286814936	 1.3994277523	-0.0148702593	-0.18273
H	-0.9236248986	 1.7760740507	 0.0227534445	 0.094928
H	 0.6104736719	 4.1093746214	 0.0249314581	 0.141588
H	 3.3650224046	 4.4328215821	-0.0012595395	 0.148392
128.4528	197.7459	276.9997	496.4645	647.4882	664.009	753.5191	831.582	922.2782	937.2481	968.5632	1013.356	1021.0855	1051.1376	1210.7784	1277.2902	1358.7484	1427.2723	1485.6581	1609.327	1805.8454	2911.3845	3252.5362	3282.0421
O=CC1=CC=NO1	O=Cc1ccno1	
InChI=1S/C4H3NO2/c6-3-4-1-2-5-7-4/h1-3H	InChI=1S/C4H3NO2/c6-3-4-1-2-5-7-4/h1-3H
