14
gdb 1703	4.41885	2.19212	1.88453	2.9229	57.39	-0.2711	0.0198	0.2909	710.0499	0.113327	-324.569062	-324.562117	-324.561173	-324.600037	24.612	
C	-0.1119447273	 1.5681986773	-0.0071510368	-0.451523
C	-0.012074459	 0.0393409627	 0.0013459803	 0.110808
C	 1.1802739145	-0.5277358682	-0.8276457359	-0.101159
O	 1.931818284	-0.7988829143	 0.3670764624	-0.262621
C	 0.791971521	-0.5418120915	 1.2039541024	-0.10116
C	-1.3058835399	-0.5816123355	-0.2502371918	 0.238549
N	-2.3318837905	-1.0757831171	-0.4497991729	-0.335533
H	 0.8746874416	 1.9994279458	 0.1844164782	 0.138055
H	-0.4693449067	 1.9306103086	-0.9750325068	 0.141592
H	-0.8020143608	 1.9185520255	 0.7654600218	 0.141591
H	 0.9462922338	-1.4397857095	-1.3890755682	 0.122898
H	 1.6805063911	 0.1931915791	-1.4832185699	 0.117802
H	 1.0133440517	 0.1690086042	 2.0073671173	 0.117802
H	 0.3697713964	-1.4606839272	 1.6272831899	 0.122898
90.7242	186.3823	186.4593	256.1905	330.5342	358.4014	548.227	562.644	602.9196	844.302	913.2009	918.9176	947.5692	979.0301	1016.445	1047.5794	1154.3667	1162.2347	1169.0141	1211.643	1278.6022	1308.8177	1369.6869	1413.4271	1489.6477	1495.2958	1511.6242	1534.9949	2354.0306	3021.5155	3031.1165	3043.6776	3079.4042	3080.7078	3122.6555	3122.9599
CC1(COC1)C#N	CC1(COC1)C#N	
InChI=1S/C5H7NO/c1-5(2-6)3-7-4-5/h3-4H2,1H3	InChI=1S/C5H7NO/c1-5(2-6)3-7-4-5/h3-4H2,1H3
