13
gdb 3436	5.11402	2.87284	2.06683	1.9443	54.73	-0.2316	0.015	0.2466	617.9992	0.103861	-340.625597	-340.619915	-340.618971	-340.654742	22.127	
N	 0.0220006706	 1.3301857813	 0.1297623692	-0.578464
C	-0.0095728593	-0.0374832011	 0.0115585402	 0.39223
N	-1.0843800574	-0.7282788167	-0.0912540949	-0.295598
C	-0.736438939	-2.1546153793	-0.0277676098	-0.184669
C	 0.7844448726	-2.2347992551	 0.0140659624	 0.040382
O	 1.4092006566	-1.6376367961	-1.1275466185	-0.245938
C	 1.2593617474	-0.8451453041	 0.0646710018	-0.078583
H	 0.820162464	 1.7982841491	-0.2717567629	 0.256455
H	-0.8599134552	 1.7831651909	-0.0663926748	 0.259154
H	-1.1748177494	-2.6105116441	 0.8698005245	 0.108464
H	-1.1481282178	-2.6839103063	-0.8950095456	 0.120717
H	 1.3197138108	-3.0670289334	 0.4626982252	 0.101725
H	 2.1747844661	-0.5002152052	 0.5368044233	 0.104124
217.5108	299.8586	364.5518	398.6556	433.5305	584.0683	641.8976	720.9298	785.467	829.3477	865.8557	885.7803	933.4534	969.6436	1011.1769	1036.7891	1099.4773	1173.6448	1210.4704	1238.1794	1282.1034	1323.1071	1388.3452	1439.2294	1476.0411	1627.3415	1715.0737	3023.1984	3063.2665	3150.4039	3162.6923	3563.3651	3675.3787
NC1=NCC2OC12	NC1=NC[C@H]2O[C@@H]12	
InChI=1S/C4H6N2O/c5-4-3-2(7-3)1-6-4/h2-3H,1H2,(H2,5,6)	InChI=1S/C4H6N2O/c5-4-3-2(7-3)1-6-4/h2-3H,1H2,(H2,5,6)/t2-,3-/m1/s1
