13
gdb 2202	4.77857	2.26281	1.70441	1.0151	50.46	-0.2582	-0.0386	0.2196	703.6578	0.100187	-381.581478	-381.574371	-381.573427	-381.612486	25.358	
O	 0.1865315377	 1.3887742794	 0.1083522048	-0.429217
C	 0.0883877175	 0.0027197841	 0.0655645942	 0.073472
C	-1.3099676481	-0.7265431336	 0.0257534396	-0.317125
C	-0.7344501732	-1.761702138	-1.0163838642	 0.073471
O	-1.4897295809	-2.2056944629	-2.0957478155	-0.429211
C	 0.2831966686	-0.6587808465	-1.2963863579	 0.275978
O	 0.6061951229	-0.1649275737	-2.347373363	-0.322246
H	 0.2336467739	 1.6985778608	-0.8058525515	 0.296376
H	 0.7119046306	-0.4330383937	 0.8533874343	 0.115105
H	-1.6715768158	-1.1358975696	 0.9683238251	 0.12454
H	-2.0666119765	-0.0897054129	-0.4373413709	 0.127373
H	-0.30883294	-2.621819383	-0.4887762482	 0.115111
H	-1.3088400268	-1.6086171504	-2.8338155269	 0.296375
124.0879	160.5671	169.0849	305.5384	314.4135	352.3801	419.5297	532.0533	624.8679	718.7602	803.0616	825.635	961.7123	978.4443	1004.0783	1032.9985	1120.5387	1148.7088	1172.1051	1235.2191	1254.7807	1319.8773	1358.3086	1416.092	1430.9876	1470.4509	1838.5678	3054.7894	3062.7914	3084.3117	3158.5014	3760.562	3763.1118
OC1CC(O)C1=O	O[C@H]1C[C@@H](O)C1=O	
InChI=1S/C4H6O3/c5-2-1-3(6)4(2)7/h2-3,5-6H,1H2	InChI=1S/C4H6O3/c5-2-1-3(6)4(2)7/h2-3,5-6H,1H2/t2-,3+
