23
gdb 1294	6.08497	0.99017	0.90107	0.0577	78.7	-0.2997	0.0862	0.3858	1383.4554	0.216412	-276.206257	-276.196497	-276.195553	-276.240836	34.915	
C	 0.0895897802	 1.5816524712	-0.0398751731	-0.379668
C	 0.0288989737	 0.0517714326	-0.0438030113	-0.161376
C	-1.399012813	-0.496712581	 0.0601908435	-0.168757
C	-1.4574525206	-2.0287799473	 0.0598386562	-0.162545
C	-2.8730926662	-2.6346907716	 0.0571066269	 0.04274
C	-2.8065672463	-4.1553401413	-0.1405431054	-0.387135
C	-3.662209405	-2.2924014924	 1.3290611728	-0.379673
H	 1.1201572982	 1.942593857	-0.1164791167	 0.109469
H	-0.473604908	 2.0022488796	-0.8806079573	 0.112227
H	-0.3391751481	 1.992468376	 0.8811163149	 0.112266
H	 0.4978088827	-0.3317216218	-0.9597841113	 0.0926
H	 0.6282955767	-0.340916114	 0.7884417821	 0.093045
H	-1.8650260556	-0.1009489115	 0.9715466785	 0.094374
H	-1.996115068	-0.1098629834	-0.7780709632	 0.088581
H	-0.9187807419	-2.3988702742	-0.8235362893	 0.085817
H	-0.9065390835	-2.4145379222	 0.9304821494	 0.086574
H	-3.4150432872	-2.2083980341	-0.8002680752	 0.068112
H	-2.2685093198	-4.6340348469	 0.6867887869	 0.109768
H	-3.8083835205	-4.5959309809	-0.1816481817	 0.106715
H	-2.2863692232	-4.4156363539	-1.0684983107	 0.107399
H	-4.6609029199	-2.7412511616	 1.3031631562	 0.107764
H	-3.1503933322	-2.6767355169	 2.220106832	 0.108661
H	-3.7892748424	-1.2136695115	 1.4572153157	 0.113042
57.1722	80.3523	126.3881	141.8981	219.9301	242.7809	251.2795	298.2098	301.2364	403.4202	431.6506	475.7164	734.5236	786.5321	824.2751	902.7607	913.9388	926.6824	949.7745	966.8054	1028.4847	1042.7647	1069.8346	1088.7523	1164.9289	1192.5662	1205.2351	1253.213	1280.2905	1317.5173	1331.7434	1342.0952	1370.1969	1382.196	1397.9748	1402.2223	1412.5093	1422.4597	1477.3053	1485.1807	1488.1191	1493.9738	1499.5024	1500.0657	1505.1609	1510.4668	1513.2676	2989.6083	2997.0143	3005.6044	3015.695	3020.8295	3026.039	3027.1821	3028.5342	3037.216	3061.6005	3084.667	3091.0548	3094.2556	3095.7807	3099.5727	3105.9012
CCCCC(C)C	CCCCC(C)C	
InChI=1S/C7H16/c1-4-5-6-7(2)3/h7H,4-6H2,1-3H3	InChI=1S/C7H16/c1-4-5-6-7(2)3/h7H,4-6H2,1-3H3
