15
gdb 2875	6.71526	1.88683	1.57022	0.6745	67.72	-0.2431	0.0221	0.2652	779.235	0.12557	-271.361537	-271.354967	-271.354023	-271.39192	24.991	
C	-0.3541975822	-1.1618212355	-0.546948148	-0.462109
C	-0.1443245418	-0.0251447902	-0.2150014582	 0.310048
C	 0.1173333587	 1.3449702752	 0.1979203148	-0.150765
C	-0.4156050607	 1.7065680351	 1.6208641721	-0.258388
C	 0.5918919774	 2.7199630489	 2.1064757503	-0.064051
C	 1.6924123371	 2.7356631069	 1.3570097062	-0.064056
C	 1.6292666195	 1.7357249037	 0.2283057347	-0.258387
H	-0.5423785682	-2.1634195202	-0.8442946739	 0.191891
H	-0.375273264	 2.0214089579	-0.5112744401	 0.108512
H	-1.4412807229	 2.0878726238	 1.5836317133	 0.110372
H	-0.4330427854	 0.8228925856	 2.2723014628	 0.119059
H	 0.4285240439	 3.3217361984	 2.9936341984	 0.094221
H	 2.5658726027	 3.3522267265	 1.538081134	 0.094221
H	 2.2589309358	 0.8612768202	 0.4390684467	 0.119059
H	 1.9627483801	 2.1364061238	-0.7345198429	 0.110372
94.2566	162.1296	253.3159	396.0563	498.9857	514.9919	550.6551	620.0561	627.532	717.0671	776.5242	824.2708	920.9747	953.8432	974.1389	977.9587	1034.5761	1046.551	1063.7141	1131.6642	1147.1427	1198.3882	1290.8181	1300.9333	1306.6712	1357.6237	1363.7549	1486.4359	1493.4438	1687.8985	2235.1563	3020.0551	3024.0512	3028.908	3068.606	3073.1785	3183.028	3208.1879	3505.4379
C#CC1CC=CC1	C#C[C@H]1CC=CC1	
InChI=1S/C7H8/c1-2-7-5-3-4-6-7/h1,3-4,7H,5-6H2	InChI=1S/C7H8/c1-2-7-5-3-4-6-7/h1,3-4,7H,5-6H2
