15
gdb 703	8.24798	2.66153	2.59489	1.0782	56.86	-0.2188	0.0925	0.3114	568.5492	0.132005	-250.500016	-250.494143	-250.493199	-250.5293	22.08	
C	-0.2087737013	 1.2769651873	-0.3713895495	-0.287877
C	 1.1086392338	 1.0140038708	 0.3306048447	-0.265021
C	 0.2161878769	-0.1350776217	-0.0243817004	 0.061367
N	-0.3711093541	-0.962567163	 1.000092533	-0.073423
C	-1.2264208799	-0.3724614785	 2.0195944038	-0.228521
C	-1.807813156	-1.2145901969	 0.9375569828	-0.210881
H	-0.9944437214	 1.7556466932	 0.2025184895	 0.11287
H	-0.1942434072	 1.5661511836	-1.4167170145	 0.110985
H	 2.0356024581	 1.1465544169	-0.2160221612	 0.113695
H	 1.1678752629	 1.2856118104	 1.3795124179	 0.116813
H	 0.5323742793	-0.7451242032	-0.8659890546	 0.094826
H	-1.0938106181	-0.771499032	 3.021507115	 0.116518
H	-1.4415625923	 0.6933257701	 1.9872168632	 0.112188
H	-2.3798149454	-0.6970463805	 0.1695829246	 0.111226
H	-2.1191188353	-2.2365530866	 1.1348894056	 0.115235
90.7746	235.1144	272.6235	468.3002	477.956	683.3434	777.7223	804.7366	817.6086	884.8232	901.9447	941.2716	992.4883	1037.2401	1051.1247	1073.8915	1103.403	1118.7938	1137.3389	1161.0277	1174.7563	1185.4269	1193.9849	1222.7402	1343.2349	1397.5896	1461.6748	1486.5357	1504.9018	1521.6507	3098.056	3104.3077	3132.7123	3136.0005	3144.8165	3177.4214	3192.0039	3209.9487	3224.2592
C1CC1N1CC1	C1CC1N1CC1	
InChI=1S/C5H9N/c1-2-5(1)6-3-4-6/h5H,1-4H2	InChI=1S/C5H9N/c1-2-5(1)6-3-4-6/h5H,1-4H2
