19
gdb 1897	3.45151	2.83173	2.13394	0.2293	71.96	-0.2831	0.0954	0.3785	734.3806	0.172164	-273.744309	-273.737277	-273.736332	-273.774697	27.722	
C	-0.1533809411	 1.5806561186	-0.0138602959	-0.444464
C	 0.0247551523	 0.069714581	 0.0145676982	 0.039898
C	 1.1903656262	-0.645287883	-0.7397350929	-0.054388
C	 2.1597373319	-0.1568458489	 0.3728998664	-0.261187
C	 0.8789598004	-0.6468295355	 1.1229942231	 0.338947
C	 0.6287644213	-0.6505208623	 2.6082963254	-0.514946
C	 0.9089093936	-1.8778817557	 0.16339557	-0.251752
H	 0.7776548264	 2.1332384366	 0.1356206203	 0.116057
H	-0.5732696072	 1.8979734022	-0.9750721907	 0.115498
H	-0.8546586833	 1.8991884827	 0.7660193109	 0.114633
H	-0.9475187653	-0.4137319373	-0.1463376361	 0.054325
H	 1.3727824859	-0.6490187868	-1.8155291823	 0.063124
H	 3.0620182621	-0.7571619308	 0.5247658928	 0.08354
H	 2.3980763685	 0.9073435866	 0.4141776672	 0.08699
H	 0.6505648826	 0.3661230054	 3.0169210935	 0.116926
H	-0.3504235114	-1.0837801639	 2.8418018052	 0.115739
H	 1.3885843674	-1.2378373052	 3.1359612649	 0.116945
H	-0.0404039611	-2.3994711184	 0.0056839526	 0.081912
H	 1.7349395907	-2.5817946554	 0.3012016874	 0.082201
172.4024	192.499	199.7397	293.3069	345.8923	367.4312	545.8608	576.2246	622.0178	749.4324	784.2324	786.8986	889.0193	906.1031	947.3011	996.5907	1004.0058	1021.2905	1022.7237	1056.9237	1117.759	1120.9225	1148.6706	1154.869	1178.6436	1204.5257	1229.0183	1237.4882	1254.2999	1323.3277	1404.9241	1408.1132	1422.3515	1488.4412	1489.5813	1493.1555	1496.1367	1511.4423	1545.871	3015.5226	3022.7324	3031.4086	3039.1972	3054.5517	3084.9631	3089.4722	3090.2193	3098.5963	3102.9115	3109.9244	3122.4998
CC1C2CC1(C)C2	C[C@H]1[C@H]2C[C@]1(C)C2	
InChI=1S/C7H12/c1-5-6-3-7(5,2)4-6/h5-6H,3-4H2,1-2H3	InChI=1S/C7H12/c1-5-6-3-7(5,2)4-6/h5-6H,3-4H2,1-2H3/t5-,6-,7+/m0/s1
