14
gdb 4155	3.27407	1.5112	1.08758	3.1199	62.86	-0.2405	-0.0352	0.2053	1024.6843	0.105566	-415.786491	-415.778585	-415.777641	-415.819533	27.714	
O	 0.0405116966	 1.175969923	 0.176224013	-0.385057
N	 0.034165709	-0.2223303847	 0.0950192221	-0.211636
C	-1.1427619089	-0.6658528161	-0.0178440578	 0.390967
C	-2.5494264605	-0.1247443717	-0.1394418751	-0.256578
N	-2.9844060418	-1.5029129054	-0.5114753995	-0.330115
C	-1.6593349566	-2.0905073741	-0.1651482377	-0.154898
C	-1.0411254329	-2.9029403876	-1.2938018282	 0.17965
O	-0.3055558466	-3.83814818	-1.1270994207	-0.23942
H	 0.9807163033	 1.3735409911	 0.2522036092	 0.31442
H	-2.9467593215	 0.2603863267	 0.8093940079	 0.125733
H	-2.7180575759	 0.6266828547	-0.9180860143	 0.13805
H	-3.7528766748	-1.8671009866	 0.0385324653	 0.233061
H	-1.6091039315	-2.6719980464	 0.7640978217	 0.108154
H	-1.3339031978	-2.539013813	-2.302867686	 0.087667
60.72	104.1934	150.5421	204.7316	284.732	357.9169	421.7511	463.3432	493.8222	545.4945	678.3201	764.0192	916.2859	955.3182	976.8437	1007.2715	1022.6252	1032.9507	1102.2356	1125.678	1162.3298	1218.9097	1267.104	1318.973	1375.8981	1402.092	1411.0439	1493.5614	1795.8696	1836.947	2901.5251	3015.0929	3033.4983	3069.1797	3554.5572	3812.9206
ON=C1CNC1C=O	ON=C1CN[C@H]1C=O	
InChI=1S/C4H6N2O2/c7-2-4-3(6-8)1-5-4/h2,4-5,8H,1H2	InChI=1S/C4H6N2O2/c7-2-4-3(6-8)1-5-4/h2,4-5,8H,1H2/t4-/m0/s1
