17
gdb 2697	15.2456	0.89144	0.86028	1.0575	67.72	-0.2563	0.0554	0.3118	1319.489	0.145656	-309.681264	-309.672505	-309.67156	-309.714859	30.037	
C	 0.0185231008	 1.5227024355	-0.058710109	-0.384739
C	 0.0159420027	 0.0042132245	-0.0134622049	-0.03037
O	 0.6666585618	-0.4821620503	-1.1708500331	-0.240561
C	 0.7206637112	-1.8872086021	-1.2322054406	-0.046126
C	 1.4490161797	-2.2658822307	-2.5267300852	-0.349496
C	 1.5630214362	-3.7079167396	-2.6959381156	 0.287675
C	 1.643186664	-4.9016064238	-2.8100965068	-0.45027
H	 1.0432199359	 1.9037320841	-0.088880693	 0.127113
H	-0.5063297247	 1.8809174669	-0.9488181813	 0.127097
H	-0.4785810107	 1.9310931287	 0.8262214697	 0.115428
H	 0.5321143496	-0.3577537722	 0.8918932397	 0.087201
H	-1.0169690284	-0.3808244093	 0.0307003971	 0.087192
H	 1.2575465113	-2.3013538387	-0.3634045419	 0.097725
H	-0.2915458131	-2.3230981057	-1.2286185484	 0.09775
H	 0.9095101114	-1.8242623075	-3.3729665822	 0.13943
H	 2.4431359994	-1.803465668	-2.5161286278	 0.139413
H	 1.7214738028	-5.9541562718	-2.9235054667	 0.195536
57.6145	92.8084	102.0288	142.8804	210.9603	245.6874	355.6758	387.3448	413.7891	545.879	620.9435	646.2002	795.6517	822.9814	890.051	975.8091	1044.2893	1056.7573	1089.2835	1148.4317	1167.6507	1186.5408	1232.0378	1296.0692	1299.642	1303.526	1387.9971	1407.0149	1448.3942	1476.7573	1483.4713	1499.7369	1516.8855	1539.4903	2241.8722	2953.3332	2969.721	2980.5281	2996.7017	3034.8012	3045.2603	3072.0257	3119.7859	3122.003	3509.1194
CCOCCC#C	CCOCCC#C	
InChI=1S/C6H10O/c1-3-5-6-7-4-2/h1H,4-6H2,2H3	InChI=1S/C6H10O/c1-3-5-6-7-4-2/h1H,4-6H2,2H3
