17
gdb 3367	4.28113	2.54309	2.39665	1.4292	63.14	-0.2325	0.0855	0.318	671.7024	0.149928	-309.706892	-309.700356	-309.699412	-309.737153	24.848	
C	-0.0462314854	 1.5697413159	 0.0426996849	-0.409251
C	 0.0411445397	 0.0632638074	-0.0382528911	-0.032386
C	 0.690053317	-0.6838592526	-1.1982610662	-0.090057
C	 1.6430256006	 0.0742442638	-2.1232892706	-0.253004
C	 2.9282178225	 0.1788301785	-1.2741390934	-0.060158
O	 2.515348988	 0.0990724679	 0.0941982105	-0.257293
C	 1.3433476535	-0.6747322841	 0.1578355414	 0.076385
H	 0.9210722044	 2.0369594913	-0.1546308592	 0.128915
H	-0.7773112397	 1.9702082006	-0.6682986873	 0.112386
H	-0.3553007273	 1.8783922771	 1.0468838943	 0.117623
H	-0.8244720015	-0.455715233	 0.368561137	 0.081231
H	 0.193801974	-1.5686996896	-1.5789993795	 0.086519
H	 1.8176275907	-0.4756867583	-3.051855746	 0.103489
H	 1.260678461	 1.0633282121	-2.3950241471	 0.107832
H	 3.6139601744	-0.6503250953	-1.5062837631	 0.093221
H	 3.4700018486	 1.1204107347	-1.403374104	 0.10577
H	 1.4145297893	-1.5460363063	 0.8025286595	 0.088779
133.7573	161.6549	210.8533	272.54	444.0477	577.0397	636.1662	718.5002	763.9753	775.5892	857.1604	890.5147	939.4949	963.3793	991.7208	1004.5621	1042.6617	1077.5481	1108.628	1132.0234	1142.5638	1150.1753	1216.1814	1224.8381	1245.6398	1301.3603	1320.3624	1350.862	1390.8617	1414.6629	1426.0863	1488.0512	1498.7557	1506.1015	1519.7634	2986.2667	3034.6015	3050.7853	3081.8945	3090.93	3098.8723	3117.6189	3131.304	3144.962	3175.3753
CC1C2CCOC12	C[C@H]1[C@H]2CCO[C@@H]12	
InChI=1S/C6H10O/c1-4-5-2-3-7-6(4)5/h4-6H,2-3H2,1H3	InChI=1S/C6H10O/c1-4-5-2-3-7-6(4)5/h4-6H,2-3H2,1H3/t4-,5+,6-/m0/s1
