10
gdb 3774	4.15275	3.66055	1.96997	3.4599	44.89	-0.2838	-0.0538	0.23	587.6856	0.06664	-392.61282	-392.606835	-392.605891	-392.643045	20.078	
C	 0.0636766065	 1.4205426049	-0.0439187732	-0.336167
N	 0.0494634082	-0.0266184077	-0.008939186	-0.093378
N	 0.1708905074	-0.7913946424	-1.1104797678	-0.049244
N	 0.1272806725	-2.0004276345	-0.7924738208	 0.026576
O	-0.0335930372	-2.092455179	 0.6105278125	-0.229297
C	-0.0836692251	-0.8209174198	 1.1172246239	 0.556295
O	-0.2125557586	-0.5057817543	 2.2650201605	-0.385827
H	 1.0116156914	 1.7845988676	-0.446327415	 0.163464
H	-0.763352563	 1.7970784048	-0.649996684	 0.16347
H	-0.0524697222	 1.7548015603	 0.9881467899	 0.184108
87.8242	175.6476	256.7443	277.3574	512.8315	665.7726	682.4856	757.3925	763.6872	798.5059	1017.977	1070.3399	1116.7064	1160.0356	1291.0715	1401.7183	1454.2143	1484.6878	1501.4094	1520.5788	1899.3755	3059.4269	3134.743	3161.1952
CN1N=NOC1=O	Cn1nnoc1=O	
InChI=1S/C2H3N3O2/c1-5-2(6)7-4-3-5/h1H3	InChI=1S/C2H3N3O2/c1-5-2(6)7-4-3-5/h1H3
