13
gdb 4450	3.59558	1.90453	1.25478	3.5804	58.36	-0.1787	0.0478	0.2266	891.2549	0.096153	-431.927149	-431.919633	-431.918689	-431.958557	28.094	
N	 0.0947356002	 1.3930538802	 0.1817090614	-0.611224
C	-0.0173243853	 0.0101730282	 0.0098533871	 0.18831
C	-1.0639392372	-0.8118284914	-0.1104910841	 0.279425
O	-2.375945658	-0.5703810217	-0.278851127	-0.423175
O	-0.6286142287	-2.1391544334	-0.1657978668	-0.2431
C	 0.7490098945	-2.1296806009	-0.0584674108	 0.465542
N	 1.5179107221	-3.1329281247	 0.0148466882	-0.597439
N	 1.1334294883	-0.7987161573	-0.043776319	-0.370689
H	 0.5525907733	 1.8395522387	-0.6091317153	 0.252147
H	-0.822134108	 1.8093810474	 0.2940394755	 0.256555
H	-2.8775220406	-0.9969613067	 0.4287633662	 0.308751
H	 0.9837216644	-3.9970621579	-0.0187768197	 0.223388
H	 2.0061279649	-0.5342536804	 0.3831769441	 0.271509
154.0272	195.1266	249.8993	258.8191	307.8101	329.9177	369.436	435.1153	563.022	602.7243	651.3125	671.4893	715.6646	751.4237	827.929	858.7486	958.8194	1045.1383	1078.3034	1170.073	1260.0579	1293.6563	1325.9383	1377.9347	1460.8346	1643.683	1781.6374	1848.8709	3482.4405	3540.5369	3596.3626	3659.7446	3739.8995
NC1=C(O)OC(=N)N1	NC1=C(O)O[C@H]([NH])N1	
InChI=1S/C3H5N3O2/c4-1-2(7)8-3(5)6-1/h7H,4H2,(H2,5,6)	InChI=1S/C3H6N3O2/c4-1-2(7)8-3(5)6-1/h3,5-7H,4H2/t3-/m1/s1
