17
gdb 2993	6.90313	1.49924	1.38546	2.555	65.49	-0.2414	-0.0067	0.2347	928.7812	0.147281	-309.736028	-309.728155	-309.727211	-309.768579	27.899	
C	-0.0400597102	 1.5280680365	 0.0769203175	-0.376853
C	 0.0498742947	 0.0097646887	-0.04386993	-0.288016
C	 0.7217518466	-0.4649397746	-1.3241527741	 0.386537
O	 1.1407941089	 0.3112190951	-2.1591350911	-0.333644
C	 0.8387732892	-1.942991955	-1.4998226136	-0.101562
C	 0.7439984791	-2.4872049719	-2.9184863236	-0.246961
C	 2.0662705921	-2.4639408531	-2.2342795839	-0.246979
H	 0.9547937237	 1.9799091332	 0.0524317687	 0.131111
H	-0.6071677484	 1.9517349593	-0.7557869751	 0.131074
H	-0.5291839674	 1.8147391925	 1.0121433145	 0.10744
H	 0.6010848796	-0.4271304706	 0.8011565482	 0.121693
H	-0.945501432	-0.4550600253	-2.4362*^-6	 0.121679
H	 0.4366194629	-2.5574744026	-0.7019122905	 0.084948
H	 0.2359445707	-3.4353411604	-3.0515818926	 0.116772
H	 0.5690457076	-1.7462422154	-3.6899581908	 0.137993
H	 2.7762505842	-1.7073513156	-2.547819429	 0.138005
H	 2.4945080585	-3.395609481	-1.8829961984	 0.116765
55.253	84.8679	181.2595	183.7708	263.0461	299.0683	376.2077	570.4623	631.3455	767.7059	801.2901	811.9673	831.4399	890.7115	901.6739	1000.4882	1037.758	1067.9324	1085.3434	1101.5374	1109.2633	1131.0725	1138.0663	1210.3934	1223.7529	1277.303	1353.9602	1411.5386	1413.068	1451.6733	1451.9218	1484.5061	1490.7648	1497.1978	1786.3044	3012.0914	3038.1315	3050.8694	3121.6773	3127.0303	3140.9185	3142.4846	3170.3746	3228.5383	3243.0385
CCC(=O)C1CC1	CCC(=O)C1CC1	
InChI=1S/C6H10O/c1-2-6(7)5-3-4-5/h5H,2-4H2,1H3	InChI=1S/C6H10O/c1-2-6(7)5-3-4-5/h5H,2-4H2,1H3
