13
gdb 2475	5.25318	2.74226	2.46999	2.9155	53.03	-0.2334	-0.0197	0.2137	579.4051	0.103092	-344.442225	-344.436972	-344.436028	-344.471156	20.545	
O	 0.026462231	 0.0512485122	-0.0295650524	-0.319083
C	 0.0101274492	 1.2486385688	-0.0015695202	 0.446707
C	-1.1868371114	 2.2302417693	 0.0237286245	-0.338688
C	-0.3343473115	 3.5126076669	 0.022393049	 0.078691
C	 0.7384525404	 3.2679222451	-1.0644914618	-0.24067
C	 1.1758511339	 2.2539997122	 0.0215884801	-0.031918
O	 0.677233847	 3.1855989745	 1.0367353311	-0.296475
H	-1.842183768	 2.0982104659	-0.841663249	 0.127141
H	-1.7745858784	 2.1241319887	 0.9385136309	 0.140212
H	-0.8215958147	 4.4742391239	 0.1752241575	 0.094356
H	 0.431353696	 2.9034943695	-2.0484564074	 0.111481
H	 1.4446515932	 4.094968779	-1.142418537	 0.12597
H	 2.1896058132	 1.8898057439	 0.1709790346	 0.102277
152.9601	388.3194	432.2569	513.2891	610.3889	635.3304	760.2716	810.7813	837.3105	860.605	903.2475	941.6667	970.0072	1001.7652	1025.1973	1075.2974	1128.0472	1150.3586	1187.9267	1222.627	1233.8631	1271.5992	1299.9108	1315.9177	1448.8374	1485.0153	1885.8248	3067.0162	3071.1625	3123.831	3134.7454	3146.2566	3160.3431
O=C1CC2CC1O2	O=C1C[C@@H]2C[C@H]1O2	
InChI=1S/C5H6O2/c6-4-1-3-2-5(4)7-3/h3,5H,1-2H2	InChI=1S/C5H6O2/c6-4-1-3-2-5(4)7-3/h3,5H,1-2H2/t3-,5-/m1/s1
