15
gdb 963	3.64667	3.22757	1.73951	1.4211	64.04	-0.1744	0.0523	0.2267	713.5505	0.126463	-304.73336	-304.72601	-304.725066	-304.764728	26.72	
C	-0.0636573187	 1.5257891254	 0.1061748483	-0.51441
C	-0.0024867022	 0.0409385415	-0.0107992383	 0.27298
C	-0.0264005106	-0.7639954373	-1.1334659752	 0.164487
N	-0.1437446465	-0.2849456389	-2.4660615615	-0.611297
C	 0.0345745093	-2.1209265343	-0.6977113274	-0.218479
C	 0.0964686541	-2.1082829781	 0.6762698345	-0.090715
N	 0.0882707745	-0.7996302438	 1.0803475178	-0.292508
H	 0.9131577183	 1.9879566306	 0.3060846087	 0.118307
H	-0.4388308704	 1.9408675136	-0.833574234	 0.145211
H	-0.7429938171	 1.8458258821	 0.9058540261	 0.116914
H	 0.6905654834	 0.206505204	-2.7687898001	 0.235403
H	-0.2900591283	-1.0518148977	-3.1112754775	 0.232696
H	 0.0314270406	-2.9985021047	-1.3273967192	 0.078564
H	 0.1478625183	-2.9133557282	 1.3912700779	 0.109911
H	 0.1202931955	-0.4898894842	 2.0353838899	 0.252934
64.7053	143.8921	220.6322	251.2915	294.6064	426.4372	428.3237	631.0768	636.3743	665.529	692.6966	724.1083	791.2277	830.227	914.3095	975.678	1062.3283	1083.8726	1089.5217	1143.6804	1232.0451	1278.7152	1327.4027	1409.6962	1443.877	1482.5359	1489.9729	1501.5057	1523.3555	1637.1482	1663.5224	3002.7537	3050.8509	3110.2163	3235.5387	3267.1284	3506.5826	3593.0559	3684.5698
CC1=C(N)C=CN1	Cc1c(N)cc[nH]1	
InChI=1S/C5H8N2/c1-4-5(6)2-3-7-4/h2-3,7H,6H2,1H3	InChI=1S/C5H8N2/c1-4-5(6)2-3-7-4/h2-3,7H,6H2,1H3
