13
gdb 1235	8.33321	1.09348	1.00226	1.3096	71.29	-0.2485	-0.0237	0.2248	1109.9975	0.098957	-307.260972	-307.252965	-307.252021	-307.293052	28.381	
C	 0.0513365862	 1.558851605	-0.0209231141	-0.387673
C	 0.0393125305	 0.0227624098	-0.0260340043	-0.05625
O	 0.8127336141	-0.5175745407	 1.040750049	-0.4075
C	-1.3292781323	-0.5020533283	-0.0210524152	 0.473618
C	-2.4634081172	-0.9241024515	 0.0196610537	-0.360345
C	-3.7380553178	-1.3981898862	 0.0627943499	 0.295744
C	-4.8693652814	-1.8184709948	 0.1022622634	-0.548103
H	 1.0863863775	 1.9098726843	-0.0247835213	 0.130286
H	-0.4665073083	 1.9563427038	-0.8983914841	 0.130867
H	-0.4494906076	 1.9429514178	 0.8734545642	 0.121537
H	 0.543885772	-0.3296873262	-0.9342319479	 0.127667
H	 0.3446667436	-0.332849396	 1.8630260551	 0.286105
H	-5.8640231292	-2.1883589868	 0.1351732617	 0.194048
91.1388	106.1344	234.626	238.3425	262.4649	304.9657	374.2772	495.0784	502.3841	540.1969	560.6874	595.574	611.	695.1846	891.9908	1013.0891	1065.0319	1097.2453	1181.4711	1281.3884	1332.4896	1399.1481	1414.7848	1487.536	1490.4368	2179.9243	2358.5772	3036.4136	3041.7187	3117.2083	3130.0388	3504.9504	3801.3853
CC(O)C#CC#C	C[C@@H](O)C#CC#C	
InChI=1S/C6H6O/c1-3-4-5-6(2)7/h1,6-7H,2H3	InChI=1S/C6H6O/c1-3-4-5-6(2)7/h1,6-7H,2H3/t6-/m1/s1
