11
gdb 1370	7.97173	1.58911	1.32499	5.2935	57.62	-0.2552	-0.0515	0.2037	824.0097	0.07735	-339.419688	-339.412572	-339.411628	-339.451361	24.356	
N	 0.1170427832	 1.4426425504	 0.0070772738	-0.46271
C	 0.0806994438	 0.1692974395	 0.0013958263	 0.252654
N	-1.1211201283	-0.5528989589	 0.0084653076	-0.32664
C	-2.426246844	-0.0800727963	 0.0244122215	 0.160757
O	-2.7821659567	 1.0654259489	 0.0348212888	-0.252441
C	 1.2380332292	-0.690487428	-0.0132121976	 0.26502
C	 2.2169197719	-1.3896941866	-0.0254926759	-0.438321
H	 1.0865697619	 1.75615204	 0.0000228159	 0.236787
H	-1.0194278798	-1.5562873259	 0.0017387189	 0.264439
H	-3.1284548525	-0.9392973172	 0.0257718836	 0.081575
H	 3.0902551314	-1.9954320559	-0.036308923	 0.218881
46.1857	146.1538	221.686	231.4476	289.9967	417.6032	573.828	574.3571	656.1103	670.7227	723.172	727.8794	879.8323	937.2947	1023.1373	1043.1641	1178.7873	1316.8425	1447.9806	1534.1105	1688.4455	1849.1865	2226.5331	2919.2695	3495.318	3504.0163	3629.5818
N=C(NC=O)C#C	N=C(NC=O)C#C	
InChI=1S/C4H4N2O/c1-2-4(5)6-3-7/h1,3H,(H2,5,6,7)	InChI=1S/C4H4N2O/c1-2-4(5)6-3-7/h1,3H,(H2,5,6,7)
