10
gdb 2609	11.62655	1.02026	0.94337	4.7149	65.34	-0.2855	-0.0468	0.2386	1103.4835	0.065299	-284.987905	-284.980849	-284.979905	-285.019267	24.045	
C	-0.0710599621	-1.2272525093	-0.0038339738	-0.419883
C	-0.024253224	-0.0285974736	 0.0021511134	 0.308308
C	 0.0213795164	 1.4333582538	 0.0095404815	-0.507299
C	 1.3815212984	 1.9662044479	-0.0005752929	 0.136779
C	 2.5019841751	 2.4134426187	-0.0088607156	 0.018858
C	 3.7698773688	 2.9208082804	-0.0182274189	 0.218479
N	 4.8474107347	 3.3541126495	-0.0261771702	-0.333004
H	-0.1095590009	-2.2888599202	-0.0091717609	 0.213925
H	-0.5220769833	 1.8291604613	-0.8596881673	 0.181919
H	-0.505366113	 1.8197763414	 0.8931581447	 0.181919
74.7544	141.6262	189.5326	313.005	345.6165	352.5044	499.4894	577.0199	579.5903	640.7666	668.9607	739.4465	927.9485	950.1115	1166.5939	1227.2869	1334.262	1442.6048	2253.1065	2272.8304	2410.2113	3012.0985	3039.5056	3504.0863
C#CCC#CC#N	C#CCC#CC#N	
InChI=1S/C6H3N/c1-2-3-4-5-6-7/h1H,3H2	InChI=1S/C6H3N/c1-2-3-4-5-6-7/h1H,3H2
