14
gdb 1612	3.92544	2.37994	1.50974	2.6207	56.89	-0.2511	-0.0741	0.177	780.1238	0.111467	-361.740208	-361.732024	-361.73108	-361.773557	26.746	
C	 0.1661579608	 1.3782221059	 0.0378544785	-0.345944
N	 0.0984015064	-0.0701971902	-0.0989338759	-0.097592
C	 0.4880751922	-0.8255613737	 1.0833305492	-0.360962
C	-0.3109768031	-0.5864687548	-1.2865011449	 0.314667
O	-0.6294533912	 0.0894026383	-2.2571318496	-0.367922
C	-0.4137229011	-2.1062485896	-1.523088813	 0.10329
O	-0.1780413082	-3.0182984096	-0.7755226658	-0.245493
H	 1.1906242862	 1.6880586103	 0.2769881074	 0.129239
H	-0.1463470047	 1.8338148849	-0.8995571139	 0.172961
H	-0.4910445226	 1.7124250288	 0.8496694994	 0.129228
H	 0.4105483252	-1.89257653	 0.9016788591	 0.189206
H	 1.5210490162	-0.5783882356	 1.3589441543	 0.127817
H	-0.1574837289	-0.5536125251	 1.9279420436	 0.12787
H	-0.7648905572	-2.2601411195	-2.5632585783	 0.123635
39.3327	96.6935	127.0773	150.2395	255.4187	268.3716	346.4567	405.544	504.4347	591.6472	696.3404	726.7763	992.4909	1031.5126	1080.1885	1130.4914	1182.9127	1199.9719	1276.2191	1379.1988	1433.1435	1438.5519	1468.1491	1493.7793	1496.6446	1508.3146	1544.0952	1736.0012	1826.3578	2949.1904	3014.6924	3023.8566	3060.375	3072.3408	3176.6907	3204.9674
CN(C)C(=O)C=O	CN(C)C(=O)C=O	
InChI=1S/C4H7NO2/c1-5(2)4(7)3-6/h3H,1-2H3	InChI=1S/C4H7NO2/c1-5(2)4(7)3-6/h3H,1-2H3
