17
gdb 3017	6.21159	1.57085	1.43791	1.5106	60.38	-0.2641	0.0845	0.3486	892.1645	0.147358	-346.834331	-346.82656	-346.825616	-346.866232	28.204	
C	 0.0415758825	 1.5015634134	 0.1511969091	-0.384779
C	 0.022636404	-0.0181936458	-0.0196342536	-0.182375
C	 0.6794838969	-0.4770549279	-1.3313266959	 0.102905
O	 2.0212194414	-0.031201779	-1.4352813729	-0.435332
C	 0.6222705996	-1.9916593548	-1.470804619	 0.066471
C	 1.5893918116	-2.7262868247	-2.2897176317	-0.187463
O	 1.7227082315	-2.680164991	-0.8584633488	-0.251388
H	 1.0661431598	 1.8781064681	 0.0985454079	 0.133336
H	-0.5355015017	 1.9945604064	-0.6394103038	 0.111523
H	-0.388077167	 1.79759529	 1.1127138306	 0.109744
H	 0.5468985981	-0.5006337103	 0.816154021	 0.103144
H	-1.0099744582	-0.3907413468	 0.0057333109	 0.091447
H	 0.1431533566	-0.025671844	-2.1774244529	 0.090017
H	 2.5370668714	-0.6373726149	-0.8848091015	 0.288681
H	-0.350447969	-2.4473717303	-1.2822976692	 0.095215
H	 1.3245452185	-3.701262113	-2.6940103926	 0.119023
H	 2.345225864	-2.1688243555	-2.8367643975	 0.129831
87.9588	116.9827	193.203	218.605	277.5874	314.805	402.8814	472.5228	510.7597	661.3388	773.8925	790.783	868.0744	894.9061	967.2219	985.9868	1027.0621	1066.8381	1099.5742	1124.488	1151.2002	1164.8882	1172.1191	1259.5107	1278.0366	1297.8688	1344.6039	1383.0024	1406.1663	1421.2965	1441.351	1483.0231	1495.552	1509.4168	1516.6624	3014.0908	3020.9847	3036.286	3054.2082	3099.5116	3101.5054	3109.8147	3125.6875	3196.5193	3744.1231
CCC(O)C1CO1	CC[C@@H](O)[C@H]1CO1	
InChI=1S/C5H10O2/c1-2-4(6)5-3-7-5/h4-6H,2-3H2,1H3	InChI=1S/C5H10O2/c1-2-4(6)5-3-7-5/h4-6H,2-3H2,1H3/t4-,5-/m1/s1
