15
gdb 1742	5.20377	1.7859	1.57195	4.0642	58.1	-0.2713	0.0056	0.2769	809.4866	0.123211	-345.665479	-345.658133	-345.657189	-345.696809	26.494	
C	 0.0654991087	 1.5471942036	-0.3149823239	-0.445441
C	-0.0046618697	 0.0707505514	-0.0103288854	 0.419669
C	 1.2038217488	-0.8027624517	-0.1359427242	-0.303056
C	 0.6184948373	-0.513953311	 1.2317764918	-0.3169
O	-1.2018882038	-0.5391818337	-0.487327619	-0.223089
C	-2.3019480663	-0.4174244564	 0.2847843609	 0.159384
O	-3.3689198514	-0.8397179787	-0.046795009	-0.274991
H	 1.0304682627	 1.956986572	-0.0044776531	 0.12535
H	-0.0534501181	 1.719793011	-1.3891541156	 0.139335
H	-0.7208951155	 2.101884401	 0.2084725388	 0.12497
H	 1.0476160464	-1.7944891179	-0.5435357171	 0.13643
H	 2.1423066751	-0.3359816192	-0.4126064562	 0.121225
H	 1.1497648561	 0.1565520472	 1.8983194245	 0.12393
H	 0.0971832685	-1.3242770077	 1.7283373008	 0.129682
H	-2.1000662786	 0.0965741601	 1.2427319368	 0.083501
98.0889	165.3853	201.3001	238.0106	312.7442	326.6619	408.9536	509.0253	553.0487	768.3688	772.9308	870.474	936.79	944.0799	987.7586	1040.45	1052.938	1067.2724	1084.0527	1131.9172	1183.2279	1189.7903	1273.168	1348.4118	1419.7912	1423.7957	1456.6032	1484.4339	1491.4458	1506.3566	1864.4224	2968.8454	3036.6001	3102.5449	3120.9589	3138.4936	3144.0193	3222.6335	3237.5093
CC1(CC1)OC=O	CC1(CC1)OC=O	
InChI=1S/C5H8O2/c1-5(2-3-5)7-4-6/h4H,2-3H2,1H3	InChI=1S/C5H8O2/c1-5(2-3-5)7-4-6/h4H,2-3H2,1H3
