10
gdb 4427	4.31151	1.64045	1.18832	3.308	53.26	-0.2816	-0.0809	0.2007	883.6845	0.060514	-450.668952	-450.661901	-450.660957	-450.70164	23.542	
O	 0.1748820857	 1.4764066778	 0.0099941149	-0.365768
C	-0.0571427915	 0.1584449619	 0.0040224956	 0.498978
N	 1.147084837	-0.5686591812	-0.0062274206	-0.372178
C	 1.1311506212	-1.8538047196	-0.0129443214	 0.126604
N	 0.0972187683	-2.7463794603	-0.0124713504	-0.370993
C	-1.1317120585	-2.667778804	-0.0057068488	 0.595016
O	-2.2678622523	-2.8858653532	-0.0010444605	-0.23531
O	-1.1872410641	-0.2752691221	 0.0077097647	-0.343513
H	 1.1354113577	 1.593564166	 0.0055232111	 0.313349
H	 2.0980060264	-2.3534628252	-0.0211236047	 0.153813
34.0968	115.8678	141.6516	282.5205	395.9026	430.6214	562.7761	591.9017	618.959	638.2903	818.4235	822.0502	880.642	1007.1559	1013.2123	1210.7008	1345.1199	1447.9166	1516.9858	1627.0877	1810.0283	2319.8115	3158.2287	3772.6199
OC1=NC=NC(=O)O1	OC(=O)[N]C=[N]=C=O	
InChI=1S/C3H2N2O3/c6-2-4-1-5-3(7)8-2/h1H,(H,4,5,6,7)	InChI=1S/C3H2N2O3/c6-2-4-1-5-3(7)8/h1H,(H,7,8)
