15
gdb 1040	6.74576	1.93938	1.6488	0.4655	63.28	-0.2123	0.0232	0.2355	775.2868	0.126129	-308.555641	-308.54904	-308.548096	-308.586483	24.157	
C	-0.0023934636	 1.5570630612	 0.206293824	-0.371015
C	-0.039087142	 0.0493065967	-0.0979059881	-0.290491
C	-1.419016556	-0.5083915736	-0.1711728949	 0.374107
C	-2.1521033621	-1.0807910515	-1.1651675499	-0.275322
C	-3.4313617253	-1.4031671433	-0.6016048181	-0.169582
C	-3.379797032	-1.0012373809	 0.6929159829	-0.020665
O	-2.1647022027	-0.4549975134	 0.9730028507	-0.180083
H	 1.0298750456	 1.9141602761	 0.2704450448	 0.112032
H	-0.5145348693	 2.125648318	-0.5758196014	 0.121311
H	-0.4977636731	 1.7715451827	 1.1571241119	 0.131799
H	 0.4549507932	-0.1545588495	-1.053269143	 0.112985
H	 0.5323474151	-0.487349291	 0.6708342933	 0.116005
H	-1.8214189533	-1.2546061409	-2.1774565518	 0.103143
H	-4.2682716929	-1.8700627207	-1.0968004674	 0.107459
H	-4.0798631115	-1.0280463499	 1.511493017	 0.128318
64.0567	154.7798	210.4398	330.96	396.1372	615.1042	630.7876	700.6826	741.573	785.0929	803.8288	845.1463	902.4896	933.4202	977.8121	1027.9191	1062.7429	1086.3662	1120.5766	1183.9968	1236.1078	1241.4619	1300.5802	1355.7148	1403.7706	1420.4989	1475.5679	1496.0746	1506.6749	1543.8283	1638.3438	3022.4834	3041.385	3078.6148	3112.3381	3122.4664	3248.866	3260.4919	3285.122
CCC1=CC=CO1	CCc1ccco1	
InChI=1S/C6H8O/c1-2-6-4-3-5-7-6/h3-5H,2H2,1H3	InChI=1S/C6H8O/c1-2-6-4-3-5-7-6/h3-5H,2H2,1H3
