19
gdb 3264	3.17121	3.13517	1.74776	0.2821	72.17	-0.2334	0.0242	0.2576	773.2471	0.174551	-273.802095	-273.795337	-273.794393	-273.832657	26.414	
C	-0.0450300461	 1.5308542897	-0.0259215857	-0.177369
C	 1.3388155779	 2.1935675906	 0.022141557	-0.174264
C	 2.2290310403	 1.9406658812	-1.2083575184	-0.238453
C	 2.7668894405	 0.5351951822	-1.3458210126	-0.047715
C	 2.0525641502	-0.5905437797	-1.3454798064	-0.047839
C	 0.5517734638	-0.7021497916	-1.2071885985	-0.238457
C	-0.0555435112	-0.003371366	 0.022990464	-0.174217
H	-0.6389532423	 1.9080639973	 0.8159099736	 0.089295
H	-0.5678550779	 1.8623437805	-0.9352557611	 0.087466
H	 1.1965017133	 3.2768167762	 0.1226663422	 0.08811
H	 1.8722188945	 1.8657058855	 0.92369942	 0.093923
H	 1.6588717173	 2.2071462968	-2.1118957315	 0.103864
H	 3.0729824572	 2.6379939567	-1.1769040573	 0.094602
H	 3.8445421109	 0.4500166373	-1.4697739444	 0.080268
H	 2.5883414741	-1.5294453619	-1.4691858791	 0.080292
H	 0.06748103	-0.3005851734	-2.1109151078	 0.103858
H	 0.2802089546	-1.7626854187	-1.1747703864	 0.094607
H	 0.4682964744	-0.3459167672	 0.9247144389	 0.093921
H	-1.0963340116	-0.3356056553	 0.1239804235	 0.088108
85.4929	201.3252	312.2835	330.7601	346.2614	476.7447	477.2813	664.968	706.7563	753.5261	833.3978	843.2569	877.8977	902.1338	971.5883	975.7592	999.4457	1039.0333	1053.0859	1096.7021	1121.5992	1159.2198	1229.065	1239.9663	1264.2587	1300.0415	1300.536	1364.8796	1365.7147	1373.4929	1394.0549	1397.2016	1425.9945	1477.7038	1478.862	1482.4994	1488.9583	1496.408	1726.2426	2988.8497	2990.742	3000.1827	3015.1955	3016.536	3046.549	3054.5558	3060.3894	3060.5261	3062.6127	3131.6272	3156.8828
C1CCC=CCC1	C1CCC=CCC1	
InChI=1S/C7H12/c1-2-4-6-7-5-3-1/h1-2H,3-7H2	InChI=1S/C7H12/c1-2-4-6-7-5-3-1/h1-2H,3-7H2
