18
gdb 1900	3.56857	2.86064	2.14937	1.9019	68.19	-0.2222	0.0866	0.3089	714.8329	0.160466	-289.769718	-289.762735	-289.76179	-289.800169	27.009	
C	-0.0731131715	 1.5624927027	-0.0875414871	-0.443764
C	 0.1144164493	 0.0593554915	-0.0042304806	 0.06526
N	 1.3324518277	-0.5769306266	-0.7191730159	-0.158988
C	 2.142004379	-0.137193184	 0.513667843	-0.213176
C	 0.8418761107	-0.6669713905	 1.1682580041	 0.296892
C	 0.4632066559	-0.7407478727	 2.6271001738	-0.520793
C	 0.9971953339	-1.8099918387	 0.1360001378	-0.198055
H	-0.2399351539	 1.8574764089	-1.1289081497	 0.131828
H	-0.9598023632	 1.8549077777	 0.4855783217	 0.118806
H	 0.7722422726	 2.1401387537	 0.2925663336	 0.118775
H	-0.8108587287	-0.4326120451	-0.32979975	 0.064353
H	 3.0550924165	-0.7225644069	 0.6576439222	 0.094829
H	 2.3654415615	 0.9297756541	 0.5516289874	 0.097296
H	 0.4282947089	 0.2574597215	 3.0773379206	 0.120269
H	-0.5230401154	-1.2007669733	 2.7544196012	 0.119327
H	 1.1869362121	-1.3375722463	 3.193026141	 0.120348
H	 0.0960354867	-2.3381536239	-0.1909193288	 0.093376
H	 1.8407368279	-2.496376032	 0.2534204158	 0.093417
152.9921	184.2934	194.5136	293.715	362.4603	366.645	577.9578	601.8207	609.3802	746.4826	786.7256	792.6844	892.7702	906.9772	922.0694	993.4679	1030.058	1032.5576	1057.2538	1110.6545	1144.3247	1172.8268	1180.6656	1195.1469	1210.6085	1214.0407	1264.482	1332.899	1403.1591	1406.8415	1430.9006	1487.237	1488.8667	1490.9312	1494.9265	1519.7071	1556.4666	3020.8122	3025.4164	3038.6735	3041.8291	3058.6012	3094.0988	3094.501	3098.417	3106.9102	3117.0711	3130.4954
CC1N2CC1(C)C2	C[C@H]1N2C[C@]1(C)C2	
InChI=1S/C6H11N/c1-5-6(2)3-7(5)4-6/h5H,3-4H2,1-2H3	InChI=1S/C6H11N/c1-5-6(2)3-7(5)4-6/h5H,3-4H2,1-2H3/t5-/m1/s1
