18
gdb 546	15.76768	1.26349	1.21402	0.8667	61.68	-0.2481	0.0928	0.3409	1024.2518	0.164575	-272.836211	-272.828014	-272.82707	-272.868652	27.758	
C	-0.0363554895	 1.5113713989	 0.0435473319	-0.382047
C	 0.0199384599	-0.0165146748	-0.0252699484	-0.180965
C	 0.7287088048	-0.5184283287	-1.2757992981	-0.027454
O	 0.7376539969	-1.9287426906	-1.2615774009	-0.242756
C	 1.3747132083	-2.4960899016	-2.3860051735	-0.027145
C	 1.3242584701	-4.0096485704	-2.2611512781	-0.383751
H	 0.9682437986	 1.9487564554	 0.0516384582	 0.115404
H	-0.5724236527	 1.9310256023	-0.8150142904	 0.115395
H	-0.5499239245	 1.8455097521	 0.9496491973	 0.116391
H	 0.5386015951	-0.4180676623	 0.8528776336	 0.10558
H	-0.9926731523	-0.4356871693	-0.0078068783	 0.105561
H	 0.2166561477	-0.1462644119	-2.1814455522	 0.079252
H	 1.7615909055	-0.1277020731	-1.3132890945	 0.079263
H	 0.874750085	-2.1679956663	-3.3139343425	 0.082055
H	 2.42050156	-2.1480946038	-2.4482245342	 0.082043
H	 1.8341989297	-4.3363647606	-1.3504002676	 0.125416
H	 0.2878322046	-4.3560270114	-2.215321484	 0.125434
H	 1.8109300128	-4.480558124	-3.1205742682	 0.112325
70.4927	97.5755	138.3892	153.8256	233.8896	248.2191	304.3097	406.5326	491.5465	764.9126	822.0004	895.76	901.711	910.8086	1030.4239	1061.054	1112.4696	1161.9343	1177.7263	1177.8097	1205.5111	1270.2826	1296.2042	1314.6947	1332.8743	1392.4043	1409.3543	1413.75	1455.5688	1483.3893	1491.5673	1499.7386	1501.0235	1507.1462	1519.0163	1540.0475	2934.164	2951.7252	2959.8569	2970.6772	3031.2767	3038.2431	3044.1844	3070.639	3099.1322	3107.4949	3118.1947	3120.6703
CCCOCC	CCCOCC	
InChI=1S/C5H12O/c1-3-5-6-4-2/h3-5H2,1-2H3	InChI=1S/C5H12O/c1-3-5-6-4-2/h3-5H2,1-2H3
