14
gdb 319	6.11821	3.56308	3.551	1.329	53.49	-0.2587	0.0809	0.3397	476.4978	0.120826	-270.382725	-270.377533	-270.376589	-270.410876	20.67	
O	-0.0724667239	 1.3492606759	 0.0092598931	-0.468425
C	 0.0213779213	-0.0294936294	 0.0017462909	 0.404995
C	 0.6604980159	-0.9699902061	 1.0744756187	-0.274386
C	 0.0313618485	-1.8924914487	-0.0075391767	-0.042901
C	-1.2144035963	-0.9578486095	 0.0063154875	-0.240487
C	 0.6444529131	-0.9592891553	-1.0895878254	-0.274386
H	 0.8186257455	 1.7150555303	 0.0044294495	 0.281387
H	 1.7526182434	-0.9719345048	 1.1436045735	 0.082616
H	 0.1899757335	-0.975873152	 2.0610873196	 0.092153
H	 0.0318396448	-2.9794879599	-0.0129179804	 0.080416
H	-1.8198044498	-0.9593414541	 0.9164065066	 0.092124
H	-1.8332246354	-0.950385668	-0.8946743284	 0.092124
H	 0.1593551909	-0.9554515084	-2.0691255655	 0.092153
H	 1.7354277985	-0.9604685401	-1.1749167931	 0.082616
239.7667	361.3843	376.8998	550.0632	550.263	639.8246	774.0295	780.4153	890.7795	944.7626	946.5615	956.9426	975.6927	983.2518	1082.9291	1092.5219	1112.5277	1131.6075	1140.1174	1161.3539	1216.6621	1227.4279	1230.6363	1299.0161	1373.1304	1493.6684	1494.1216	1556.2271	3043.0897	3046.75	3056.113	3111.7801	3116.4063	3121.132	3149.0735	3809.6517
OC12CC(C1)C2	O[C@@]12C[C@@H](C1)C2	
InChI=1S/C5H8O/c6-5-1-4(2-5)3-5/h4,6H,1-3H2	InChI=1S/C5H8O/c6-5-1-4(2-5)3-5/h4,6H,1-3H2/t4-,5-
