14
gdb 3779	7.68162	1.97832	1.59262	3.5604	59.61	-0.198	0.0399	0.2379	751.9625	0.1161	-320.767103	-320.760501	-320.759557	-320.797594	23.989	
C	-0.055020018	 1.4273638549	-0.0273768559	-0.323314
N	-0.1031981535	-0.024916205	 0.0532081519	-0.391028
C	 0.6134997298	-0.620854095	 1.082483498	 0.441081
C	 1.2768742969	-0.0958688783	 2.1792322436	-0.296829
C	 1.7417793723	-1.2316438214	 2.8824426536	-0.001199
N	 1.4129655916	-2.3701130114	 2.2907688075	-0.236137
N	 0.7193667658	-1.9717472833	 1.1894529822	-0.277996
H	 0.9641445869	 1.8287713879	-0.1366131903	 0.118344
H	-0.6555079195	 1.7550711138	-0.8788960538	 0.126751
H	-0.4928267178	 1.854951464	 0.8795266006	 0.142813
H	 0.0480439171	-0.4683991021	-0.8431005574	 0.236539
H	 1.4148850707	 0.943615121	 2.4235060284	 0.0944
H	 2.3144944681	-1.2543395368	 3.7986972641	 0.103844
H	 0.2996821597	-2.6670538882	 0.5969518875	 0.26273
89.8269	189.8745	223.8967	300.1157	409.722	454.8579	564.2299	673.1925	691.1015	734.1179	757.7671	890.9269	931.4866	1016.0792	1059.9193	1105.0733	1108.6712	1152.6225	1167.4191	1255.9737	1299.7163	1376.7224	1435.7357	1459.3886	1471.9916	1487.0047	1518.783	1554.4116	1630.0375	2987.0877	3080.0609	3125.5575	3238.2261	3277.5949	3565.5328	3677.25
CNC1=CC=NN1	CNc1ccn[nH]1	
InChI=1S/C4H7N3/c1-5-4-2-3-6-7-4/h2-3H,1H3,(H2,5,6,7)	InChI=1S/C4H7N3/c1-5-4-2-3-6-7-4/h2-3H,1H3,(H2,5,6,7)
