16
gdb 1677	4.47106	1.80515	1.41321	3.9902	57.39	-0.2589	0.0193	0.2781	870.3957	0.135418	-362.955075	-362.946637	-362.945693	-362.987951	29.826	
C	-0.005841719	 1.5537077443	 0.1162156549	-0.381189
C	-0.0191763126	 0.0283163599	 0.0033949318	-0.175503
C	 0.7230121233	-0.4627845736	-1.2555282423	 0.046877
O	 2.0538888818	-0.0191093764	-1.2626115081	-0.43607
C	 0.7292074322	-1.9979116921	-1.3383002018	 0.382748
N	-0.4644652004	-2.6057494022	-1.5429913036	-0.51765
O	 1.7764128094	-2.6114993265	-1.2061364238	-0.377654
H	 1.022335689	 1.9228619032	 0.1144404676	 0.144459
H	-0.5317465826	 2.0171940248	-0.7262781588	 0.109483
H	-0.4925789004	 1.8843029891	 1.0385833873	 0.110312
H	 0.4669893231	-0.4191273169	 0.8787098133	 0.109222
H	-1.0521304619	-0.342694127	-0.0108556633	 0.080111
H	 0.2049743253	-0.0680405516	-2.1460273743	 0.078087
H	 2.5809946517	-0.8321340932	-1.1721368528	 0.292298
H	-1.3050670577	-2.083825736	-1.7174124985	 0.266224
H	-0.490092141	-3.609148006	-1.6225717075	 0.268246
59.0235	101.8372	182.0963	199.1708	226.3236	296.2854	346.8447	408.9008	478.1311	512.4449	556.7924	652.3832	711.2491	777.2637	861.7098	920.1486	1002.9734	1072.597	1096.8864	1125.5365	1165.69	1256.118	1287.8675	1344.0159	1357.1534	1385.6408	1405.0583	1465.3052	1477.6796	1493.8029	1509.3485	1620.5126	1783.448	2961.5988	3021.3947	3035.8817	3064.2298	3101.6409	3130.159	3605.0775	3642.1557	3739.4735
CCC(O)C(N)=O	CC[C@@H](O)C(=O)N	
InChI=1S/C4H9NO2/c1-2-3(6)4(5)7/h3,6H,2H2,1H3,(H2,5,7)	InChI=1S/C4H9NO2/c1-2-3(6)4(5)7/h3,6H,2H2,1H3,(H2,5,7)/t3-/m1/s1
