13
gdb 2570	3.89416	2.45626	1.70286	3.037	55.72	-0.2514	-0.0358	0.2156	715.0251	0.099896	-344.464356	-344.457395	-344.456451	-344.495473	24.265	
O	-0.3235037885	 0.4250294696	-0.7648144108	-0.275487
C	 0.108644826	 1.0426844966	 0.1803367852	 0.084195
C	 1.2953314175	 1.943342916	 0.0969059949	 0.1387
C	 2.3951755434	 1.544750919	-0.9059437097	-0.282672
C	 1.5136884571	 2.6750880039	-1.2414237202	-0.282671
C	 1.724872477	 2.6444881745	 1.3305890605	 0.099841
O	 1.1846239315	 2.5419157989	 2.4043058445	-0.261984
H	-0.3523016258	 0.9809874714	 1.183710998	 0.117538
H	 3.418096654	 1.7423447063	-0.6040193092	 0.135579
H	 2.2180291202	 0.5940626082	-1.3950085377	 0.158742
H	 0.7228804222	 2.5113028306	-1.9640373764	 0.15874
H	 1.9023968715	 3.6859328151	-1.1808631352	 0.13558
H	 2.6173913539	 3.2997542198	 1.1933240961	 0.0739
115.673	117.3019	209.2829	267.3365	296.2268	349.9362	477.0361	664.9492	764.249	769.6432	797.565	936.2081	947.7967	1031.8899	1051.1699	1064.345	1072.4098	1109.2058	1210.3619	1290.3339	1315.127	1418.4637	1437.2079	1451.1796	1484.5811	1803.4202	1817.2417	2850.7967	2968.8864	3140.8336	3141.4436	3231.7364	3245.3956
O=CC1(CC1)C=O	O=CC1(CC1)C=O	
InChI=1S/C5H6O2/c6-3-5(4-7)1-2-5/h3-4H,1-2H2	InChI=1S/C5H6O2/c6-3-5(4-7)1-2-5/h3-4H,1-2H2
