16
gdb 273	7.4215	1.74761	1.51679	0.18	53.18	-0.2583	0.0719	0.3302	802.5075	0.141169	-308.764658	-308.756772	-308.755828	-308.796363	27.553	
C	-0.0226848135	 1.5433836751	 0.0472158079	-0.399907
C	-0.0123311042	 0.0148028493	 0.0311230063	 0.133801
O	 0.7311344289	-0.5070404461	 1.1339065405	-0.429938
C	-1.4256747379	-0.5748152527	-0.0238316816	-0.176654
C	-1.4364513705	-2.0955462993	-0.1056188396	-0.072986
O	-2.7923755079	-2.5207993194	-0.1214657391	-0.424818
H	 0.9987141287	 1.9286345818	 0.1077912106	 0.123035
H	-0.4960448649	 1.947572001	-0.85334269	 0.117145
H	-0.5826633292	 1.9180192031	 0.9134416357	 0.106651
H	 0.5480856309	-0.3258938822	-0.849327053	 0.087908
H	 0.3050553978	-0.196570812	 1.9410543949	 0.275608
H	-1.9881580602	-0.2647643236	 0.868103377	 0.092635
H	-1.9634781285	-0.166495355	-0.8878549109	 0.103938
H	-0.9067263378	-2.4194573023	-1.0171018491	 0.081543
H	-0.8901649266	-2.5103090276	 0.7527063706	 0.097493
H	-2.8029259551	-3.48219173	-0.1227744402	 0.284547
89.6941	119.04	178.9926	244.7878	266.8876	294.4931	340.8041	389.4924	479.5418	505.8242	800.229	854.2874	935.7574	977.2233	1020.4783	1062.7216	1089.1278	1117.657	1158.9762	1211.9012	1245.6658	1296.7933	1317.3009	1335.4178	1382.9093	1404.0557	1420.6176	1460.2543	1482.6472	1493.8338	1496.5257	1531.7391	2963.1616	3013.4574	3021.1534	3023.4773	3032.4227	3068.9324	3095.356	3119.0928	3793.0567	3830.1048
CC(O)CCO	C[C@@H](O)CCO	
InChI=1S/C4H10O2/c1-4(6)2-3-5/h4-6H,2-3H2,1H3	InChI=1S/C4H10O2/c1-4(6)2-3-5/h4-6H,2-3H2,1H3/t4-/m1/s1
