15
gdb 3501	6.29452	2.16236	2.02358	2.4932	61.88	-0.2466	-0.026	0.2206	676.8724	0.12592	-308.470667	-308.46474	-308.463796	-308.500513	22.437	
O	-0.729290028	 0.8466647468	 0.5958724811	-0.246931
C	 0.0678271698	 1.0752097818	-0.2812095088	 0.115747
C	 1.257292373	 1.9846683314	-0.1743732947	-0.050205
C	 1.1129112041	 3.5094429866	-0.559562694	-0.055072
C	 0.3498138897	 3.7162443042	 0.7796532754	-0.219568
C	 1.5569596226	 2.7891295026	 1.1233110755	-0.04096
C	 2.4276190716	 3.7327899785	 0.2405113756	-0.218813
H	-0.0356160925	 0.5874822995	-1.2797438729	 0.072246
H	 2.1186590528	 1.5006252753	-0.6527028708	 0.078744
H	 0.8589449979	 3.9031482872	-1.544591655	 0.078994
H	 0.3918818927	 4.7267686697	 1.1942628792	 0.092184
H	-0.6451830898	 3.2842815668	 0.8712145809	 0.123668
H	 1.81032119	 2.368818405	 2.0961484137	 0.082274
H	 3.3436678019	 3.3129007966	-0.1842347028	 0.091758
H	 2.5878385744	 4.7428931381	 0.6258821678	 0.095935
99.8051	200.2623	274.2509	430.3282	549.6185	708.5226	763.863	785.6121	830.7546	878.2733	900.6449	909.1479	991.541	1011.9448	1021.0041	1035.7904	1068.5522	1102.2316	1113.5962	1127.416	1152.0669	1193.4101	1209.6984	1237.068	1243.839	1263.1226	1384.6989	1427.8512	1502.5596	1539.6174	1817.2793	2848.4105	3027.6311	3050.8067	3069.3433	3105.3231	3117.6145	3120.2153	3158.6666
O=CC1C2CC1C2	O=C[C@H]1[C@H]2C[C@@H]1C2	
InChI=1S/C6H8O/c7-3-6-4-1-5(6)2-4/h3-6H,1-2H2	InChI=1S/C6H8O/c7-3-6-4-1-5(6)2-4/h3-6H,1-2H2/t4-,5+,6-
