15
gdb 4362	3.83642	1.84553	1.24897	3.803	73.36	-0.1955	-0.0018	0.1937	924.4685	0.121973	-358.901236	-358.894179	-358.893235	-358.931929	28.	
N	-0.0176368727	 1.4063846309	 0.1509430014	-0.592024
C	-0.0105051677	 0.0154896571	 0.0593192257	 0.294429
C	-1.1952924801	-0.7217601597	 0.0823961139	-0.231732
C	-1.1400421952	-2.11600196	 0.0536237506	 0.294432
N	-2.2951752792	-2.8914532119	 0.1394558987	-0.592025
C	 0.1273209813	-2.7175352093	-0.0076783878	-0.074655
N	 1.2601447854	-2.0226495684	-0.0352063109	-0.253411
C	 1.199005879	-0.695210484	-0.0022749055	-0.074656
H	 0.8136697079	 1.8544326792	-0.2066642297	 0.249071
H	-0.8546737849	 1.8536507394	-0.1934993071	 0.245201
H	-2.1549488642	-0.2133506727	 0.1347581531	 0.073768
H	-3.1345209609	-2.4485209183	-0.2049652879	 0.245201
H	-2.1983630802	-3.8294204908	-0.221851885	 0.249071
H	 0.2118678464	-3.8024868796	-0.0347603678	 0.083665
H	 2.144309175	-0.1558722118	-0.0250172419	 0.083665
219.2339	228.2413	290.9413	299.9942	315.8967	437.0471	477.215	540.4342	553.1592	571.2304	615.6465	660.6285	732.9011	749.292	864.252	880.2579	901.7136	997.7034	1023.0515	1095.384	1122.3474	1214.7293	1234.1011	1327.3063	1361.3187	1368.0682	1495.8675	1524.945	1607.3775	1640.898	1658.6533	1659.4085	3133.1518	3138.1219	3153.9419	3562.3633	3562.401	3660.3736	3660.4006
NC1=CC(N)=CN=C1	Nc1cc(N)cnc1	
InChI=1S/C5H7N3/c6-4-1-5(7)3-8-2-4/h1-3H,6-7H2	InChI=1S/C5H7N3/c6-4-1-5(7)3-8-2-4/h1-3H,6-7H2
