15
gdb 3472	4.1359	2.97614	2.68588	1.8394	55.77	-0.2455	0.0658	0.3113	593.2917	0.126874	-345.629933	-345.624108	-345.623164	-345.659224	22.959	
O	 0.0030972702	 1.5006052792	-0.0662152988	-0.428637
C	 0.0197251128	 0.1018810965	 0.0157615734	 0.122849
C	 0.0693781293	-0.6330467681	 1.3872518217	 0.027395
C	-1.0016953926	 0.0910594544	 2.2233737859	-0.210195
C	-2.1304710425	 0.1007592219	 1.1435756473	-0.213099
C	-1.3455059779	-0.6127257561	 0.0258099542	 0.052432
O	-0.6861320321	-1.7032934829	 0.7428355649	-0.299606
H	 0.9087419754	 1.8178370212	-0.12957418	 0.290541
H	 0.700049772	-0.3672713119	-0.7020613932	 0.084098
H	 0.991032367	-0.9657438479	 1.8656108444	 0.072386
H	-1.2659969745	-0.4802566417	 3.1151587959	 0.103148
H	-0.6875268731	 1.095052447	 2.5172580688	 0.103093
H	-3.0079566304	-0.4777910887	 1.4385162501	 0.103639
H	-2.4405501315	 1.1075254024	 0.8567984457	 0.113802
H	-1.8659393821	-0.9224621952	-0.8800230703	 0.078154
231.5293	245.1071	256.9355	383.9748	514.9511	595.1214	740.9989	797.4118	836.3923	844.2708	864.2338	874.8749	924.8146	984.0288	994.2469	999.4427	1042.1882	1118.1762	1156.6057	1165.2736	1195.7884	1219.3624	1253.0457	1268.8306	1277.7634	1308.2439	1314.0577	1344.5207	1428.1198	1468.5683	1491.4724	3063.6061	3071.7853	3079.8477	3117.8828	3120.4567	3129.7212	3135.9498	3831.495
OC1C2CCC1O2	O[C@H]1[C@H]2CC[C@@H]1O2	
InChI=1S/C5H8O2/c6-5-3-1-2-4(5)7-3/h3-6H,1-2H2	InChI=1S/C5H8O2/c6-5-3-1-2-4(5)7-3/h3-6H,1-2H2/t3-,4+,5+
