13
gdb 4899	5.03105	1.42257	1.17205	2.7217	57.31	-0.2272	0.0049	0.2321	965.1379	0.095604	-435.743819	-435.736705	-435.73576	-435.775632	25.696	
O	-0.0241932519	 1.4769459617	-0.0520774565	-0.405478
C	-0.0039899027	 0.0636060386	 0.0584615806	-0.182314
C	-1.3555939515	-0.5419440132	-0.0633039988	 0.312645
C	-1.9553369111	-1.3460091868	-0.9350797809	-0.151665
O	-3.2590778428	-1.5710779985	-0.5299853042	-0.217445
C	-3.4437995596	-0.8533213347	 0.6291863376	 0.502
N	-4.477465589	-0.7572243433	 1.3336337442	-0.576501
O	-2.2722600172	-0.2199959025	 0.9306445979	-0.23824
H	-0.5775460338	 1.8171599357	 0.6596065168	 0.299646
H	 0.6238864632	-0.3089819656	-0.7554074418	 0.133327
H	 0.4540817071	-0.2562469573	 1.007271323	 0.117594
H	-1.6295294904	-1.8249840966	-1.841102756	 0.167141
H	-5.2366540403	-1.3036393074	 0.9360551882	 0.23929
83.76	121.9279	203.232	279.2384	345.0476	422.8039	494.5235	595.6466	695.8914	731.5216	761.7301	777.0079	783.1203	899.4298	968.1431	992.4774	1019.2228	1055.1489	1096.6731	1195.9587	1216.2096	1267.6817	1356.0252	1380.5472	1421.6988	1486.1326	1741.2055	1815.5441	2988.5767	3100.5525	3305.4682	3550.2848	3812.8625
OCC1=COC(=N)O1	OCC1=CO[C@@H]([NH])O1	
InChI=1S/C4H5NO3/c5-4-7-2-3(1-6)8-4/h2,5-6H,1H2	InChI=1S/C4H6NO3/c5-4-7-2-3(1-6)8-4/h2,4-6H,1H2/t4-/m1/s1
