12
gdb 2844	5.36722	1.73345	1.45968	2.729	51.24	-0.2867	-0.0108	0.2759	791.5162	0.089266	-360.488871	-360.481917	-360.480973	-360.520302	23.91	
O	 0.0385613037	 1.3858760743	-0.3033208247	-0.410121
C	 0.0551452209	 0.0987733142	 0.2830426273	-0.100129
C	-1.3242139973	-0.5137885464	 0.266903535	 0.049329
O	-1.7621686808	-1.0322235173	-0.9950896447	-0.234942
C	-1.56839297	-1.959290749	 0.0729333007	-0.098464
C	-0.477708892	-2.9018239505	-0.0686024925	 0.300991
N	 0.3761376689	-3.6750422785	-0.1626042278	-0.320999
H	-0.1863140211	 1.2762507799	-1.2339979941	 0.297523
H	 0.765698459	-0.5756329013	-0.2138977042	 0.121928
H	 0.3837144483	 0.2333952478	 1.3189485926	 0.127904
H	-2.0919326397	 0.0450331322	 0.8027020593	 0.121216
H	-2.4794548898	-2.3957777653	 0.4780120131	 0.145765
78.0862	119.9567	198.4041	267.44	357.3155	404.3031	477.1966	580.7372	617.1622	807.116	813.7083	942.0987	987.8324	1043.3862	1079.0086	1127.3524	1139.7046	1229.7847	1279.1761	1352.4511	1384.1916	1418.0793	1461.6055	1488.8547	2361.2305	3019.5124	3084.1043	3119.835	3136.9937	3806.6344
OCC1OC1C#N	OC[C@H]1O[C@H]1C#N	
InChI=1S/C4H5NO2/c5-1-3-4(2-6)7-3/h3-4,6H,2H2	InChI=1S/C4H5NO2/c5-1-3-4(2-6)7-3/h3-4,6H,2H2/t3-,4+/m0/s1
