18
gdb 2707	7.53656	0.96634	0.92857	3.688	66.14	-0.249	0.0345	0.2835	1271.4557	0.159622	-327.013034	-327.004349	-327.003405	-327.047326	29.588	
C	 0.222573452	 1.5190931651	-0.094570509	-0.380758
C	-0.0636624997	 0.0227822418	 0.0564280186	-0.160588
C	 0.6594277784	-0.6073717284	 1.2512454433	-0.165664
C	 0.3659577012	-2.1047951388	 1.3944358623	-0.162091
N	 1.0371015509	-2.7120115107	 2.5336909257	-0.274495
C	 2.0642069505	-3.5947195748	 2.4118586741	 0.153639
O	 2.5165459995	-4.0087476175	 1.3653076593	-0.32285
H	 1.2931771129	 1.7043064003	-0.2345861067	 0.118152
H	-0.3037464138	 1.9404592083	-0.9564800684	 0.114367
H	-0.0952096647	 2.0752791381	 0.7944257672	 0.113296
H	-1.1453983537	-0.1353646277	 0.1612109061	 0.095466
H	 0.2318946834	-0.5022974536	-0.8610971108	 0.104844
H	 1.7428321054	-0.4681707508	 1.1495939943	 0.111146
H	 0.3650686692	-0.0867775795	 2.1737129694	 0.085684
H	-0.7159754276	-2.2695108987	 1.4809076472	 0.105199
H	 0.7147399995	-2.6496349469	 0.5138845798	 0.149917
H	 0.7743846883	-2.4216341426	 3.462288415	 0.244129
H	 2.4502342782	-3.9098342238	 3.4023023526	 0.070608
32.9424	81.6942	116.693	144.8838	245.2414	254.0876	280.1125	396.7012	443.9997	537.6123	730.5739	752.0117	823.6246	905.7964	944.7024	987.6831	1028.4767	1033.7691	1064.909	1131.8546	1177.7574	1215.0408	1256.3011	1295.4535	1326.4835	1332.9848	1384.3935	1405.9294	1416.3738	1432.1066	1482.1713	1486.5021	1498.9898	1500.7351	1511.9818	1536.7408	1807.1549	2929.6602	3007.0626	3015.9893	3022.282	3031.0979	3041.7881	3063.7328	3097.9171	3104.3356	3116.6199	3630.9081
CCCCNC=O	CCCCNC=O	
InChI=1S/C5H11NO/c1-2-3-4-6-5-7/h5H,2-4H2,1H3,(H,6,7)	InChI=1S/C5H11NO/c1-2-3-4-6-5-7/h5H,2-4H2,1H3,(H,6,7)
