9
gdb 759	9.94981	3.71927	2.71196	5.0217	41.95	-0.2338	-0.0171	0.2167	438.4749	0.061867	-317.386479	-317.381399	-317.380455	-317.414547	18.297	
N	 0.0228289279	 1.3860316986	 0.1827496316	-0.580395
C	-0.0286821953	 0.0293309853	 0.0572453033	 0.456073
C	-1.0889699211	-0.8517763587	 0.0117318271	-0.205399
N	-0.5439132953	-2.0993281489	-0.0511238412	-0.078579
N	 0.6997108919	-2.0934787576	-0.0527818016	-0.034687
O	 1.1052549094	-0.6379422089	 0.019962207	-0.231475
H	 0.8914622163	 1.8192251374	-0.0901367194	 0.276057
H	-0.8020433898	 1.893602852	-0.0942254105	 0.272777
H	-2.1499678038	-0.6763839893	 0.0250562236	 0.125628
289.3805	294.7069	346.3325	479.2892	529.7063	667.8925	710.4272	729.4091	746.3462	962.9242	1051.9648	1078.8986	1156.9223	1312.5393	1455.2079	1495.5879	1599.4133	1661.3409	3294.3481	3592.4271	3701.3634
NC1=CN=NO1	Nc1cnno1	
InChI=1S/C2H3N3O/c3-2-1-4-5-6-2/h1H,3H2	InChI=1S/C2H3N3O/c3-2-1-4-5-6-2/h1H,3H2
