12
gdb 4691	6.02169	1.41143	1.14455	6.249	68.56	-0.2113	-0.0269	0.1844	951.6988	0.085429	-377.565536	-377.558735	-377.55779	-377.596459	25.18	
N	 0.1390246261	 1.3214094465	 0.1670458675	-0.598213
C	-0.0594773605	-0.0322546575	 0.0543589088	 0.386644
C	-1.1870070541	-0.8163253958	 0.0163194292	-0.240453
C	-0.7190719087	-2.1571256928	-0.0197607921	-0.236979
C	 0.6464106678	-2.1090960713	-0.0020259316	 0.236324
O	 1.0558596157	-0.7850120324	 0.0434750582	-0.197899
C	 1.6399022748	-3.100311524	-0.0266758239	 0.211036
N	 2.4479391611	-3.9330757774	-0.0493653473	-0.349286
H	 1.0388874242	 1.6399636248	-0.1638984245	 0.270482
H	-0.6248660515	 1.8896095994	-0.1663218497	 0.268281
H	-2.2089581848	-0.4749231228	 0.0176136938	 0.114987
H	-1.31317625	-3.0565849666	-0.0566208784	 0.135076
142.6012	157.2071	250.2483	291.4183	388.34	499.8795	556.86	578.0908	582.0843	645.1647	700.0158	723.9108	758.1549	871.7948	967.9671	1013.8054	1042.9684	1089.1674	1236.032	1260.4854	1319.6253	1447.3635	1572.7318	1622.8424	1663.4654	2327.1794	3262.8869	3275.9529	3572.288	3678.682
NC1=CC=C(O1)C#N	Nc1ccc(o1)C#N	
InChI=1S/C5H4N2O/c6-3-4-1-2-5(7)8-4/h1-2H,7H2	InChI=1S/C5H4N2O/c6-3-4-1-2-5(7)8-4/h1-2H,7H2
