13
gdb 4448	3.6413	1.83171	1.22916	4.5532	56.94	-0.1789	0.0461	0.2251	898.6122	0.096363	-431.960013	-431.952291	-431.951346	-431.991595	28.526	
N	 0.1012962953	 1.4157578277	 0.1233205484	-0.611293
C	-0.0201639464	 0.023348501	 0.0249995809	 0.223054
C	-1.0878224966	-0.797369973	 0.0322038661	 0.252389
O	-2.4117582736	-0.499212033	 0.1259415609	-0.433098
N	-0.6192158397	-2.1235427422	-0.0451635779	-0.401778
C	 0.774113694	-2.141681417	-0.0204849962	 0.436351
O	 1.5132031051	-3.1033369378	 0.0272437709	-0.424198
N	 1.1183710837	-0.7928263304	-0.0594905839	-0.377687
H	 0.4042589387	 1.8440965332	-0.7477714126	 0.246482
H	-0.7863254322	 1.8258173954	 0.3885657514	 0.255802
H	-2.8356930036	-0.6352029618	-0.7314695729	 0.303004
H	-1.1490624535	-2.9333199464	 0.2316772974	 0.265004
H	 2.0515871186	-0.4853259957	 0.1571452475	 0.265968
160.1261	204.9601	243.0367	260.976	271.4127	284.8022	352.4022	414.3002	494.1881	574.2801	622.8041	644.1072	673.1808	750.5071	814.7282	860.8777	999.2211	1077.1499	1185.1519	1231.3016	1266.3925	1280.1378	1352.5805	1392.1426	1469.032	1642.5598	1781.2963	1848.3806	3478.8276	3595.6309	3664.8254	3671.8307	3735.5242
NC1=C(O)NC(=O)N1	Nc1c(O)[nH]c(=O)[nH]1	
InChI=1S/C3H5N3O2/c4-1-2(7)6-3(8)5-1/h7H,4H2,(H2,5,6,8)	InChI=1S/C3H5N3O2/c4-1-2(7)6-3(8)5-1/h7H,4H2,(H2,5,6,8)
