12
gdb 3862	7.70912	2.05439	1.62682	3.0198	52.29	-0.2013	0.0428	0.2441	702.2303	0.092232	-356.711832	-356.70537	-356.704426	-356.741748	24.035	
N	 0.1349276729	 1.3852397372	 0.2138309241	-0.604703
C	-0.0403209511	 0.0106702631	 0.0530152541	 0.417517
C	-1.1791153557	-0.771967687	 0.0013405375	-0.388999
C	-0.6733059253	-2.0907998643	-0.0733680777	 0.440841
O	-1.4314107289	-3.2046501371	-0.1538905703	-0.431575
N	 0.6453589596	-2.1505392428	-0.0759273121	-0.347641
N	 1.0200730448	-0.8298955405	-0.0123219418	-0.258795
H	 0.8155314164	 1.7810523549	-0.4236842617	 0.250783
H	-0.7372955964	 1.8888042185	 0.1269169958	 0.257514
H	-2.2063512059	-0.449981221	-0.0095115065	 0.098302
H	-0.8217055193	-3.9519985454	-0.2012883492	 0.300286
H	 1.983018049	-0.6070250355	 0.1669868678	 0.266471
173.4688	214.3738	283.9541	316.876	413.4761	439.2183	478.3695	614.2267	654.507	708.9474	732.7385	766.6577	787.1324	1001.9349	1047.189	1105.2605	1133.0238	1202.6911	1239.7783	1355.1286	1463.1788	1562.3876	1581.2011	1623.7837	1662.6179	3277.0842	3535.4184	3632.5954	3687.5772	3790.5667
NC1=CC(O)=NN1	Nc1cc(O)n[nH]1	
InChI=1S/C3H5N3O/c4-2-1-3(7)6-5-2/h1H,(H4,4,5,6,7)	InChI=1S/C3H5N3O/c4-2-1-3(7)6-5-2/h1H,(H4,4,5,6,7)
