16
gdb 1286	8.35565	1.1159	1.00354	2.5104	58.21	-0.2476	0.0319	0.2795	1129.7357	0.134737	-362.938449	-362.92947	-362.928526	-362.973821	29.405	
C	-0.0396970331	 1.3645017075	-0.0441511952	-0.228179
O	-0.0140182195	-0.0413515437	 0.0025149024	-0.237926
C	 0.6830243757	-0.5349852093	 1.1269893669	-0.045117
C	 0.6375238991	-2.0547339054	 1.0681173742	-0.331285
C	 1.3420836718	-2.6934216421	 2.2596925325	 0.413357
N	 1.4586505564	-4.0527352009	 2.1906315069	-0.525169
O	 1.7752479786	-2.0510727814	 3.1975730185	-0.358009
H	 0.9744629749	 1.7908817862	-0.1037615444	 0.104149
H	-0.5968239316	 1.6534008565	-0.9388993432	 0.123838
H	-0.537811936	 1.7945052275	 0.8394191522	 0.104648
H	 1.7267272457	-0.1840845581	 1.1281135472	 0.100479
H	 0.2283286298	-0.1787531686	 2.0632064937	 0.106008
H	-0.4079494196	-2.3868488504	 1.0453636592	 0.129971
H	 1.0912143646	-2.4047120995	 0.1334750651	 0.125164
H	 1.0335905941	-4.5910447199	 1.4564220856	 0.258078
H	 1.8503808992	-4.5366184985	 2.9817147683	 0.259994
15.2699	76.7675	116.5279	130.8002	135.3638	232.6465	311.8207	346.4635	501.1111	507.5123	612.9357	639.7832	817.128	860.7256	989.8714	1066.7361	1081.9226	1105.8486	1165.1324	1181.2131	1221.2282	1222.0868	1265.8145	1301.9897	1381.6497	1427.2747	1470.7767	1483.6518	1485.139	1505.7399	1526.4998	1617.5501	1794.0979	2966.4774	2986.0944	3011.0713	3016.2133	3035.3157	3075.1223	3110.9399	3602.8563	3739.4028
COCCC(N)=O	COCCC(=O)N	
InChI=1S/C4H9NO2/c1-7-3-2-4(5)6/h2-3H2,1H3,(H2,5,6)	InChI=1S/C4H9NO2/c1-7-3-2-4(5)6/h2-3H2,1H3,(H2,5,6)
