13
gdb 3279	5.47177	2.59896	2.07966	3.641	53.79	-0.2364	-0.0366	0.1998	623.1584	0.10191	-344.4257	-344.419918	-344.418974	-344.455472	21.343	
O	 0.0436657019	 0.0674638539	-0.606112413	-0.280601
C	 0.0162243051	 1.1773550295	-0.167719551	 0.412359
C	-1.1159945394	 2.1265045293	 0.2933254912	-0.366517
C	-0.0509909667	 3.2224874893	 0.572281106	-0.085531
C	 0.6043473807	 3.1232598137	 1.9574624213	-0.072779
O	 1.546288643	 2.1208841137	 1.497544264	-0.285137
C	 1.0932869661	 2.2505132048	 0.1307539117	-0.001228
H	-1.7913352597	 2.3636434521	-0.5352528923	 0.138797
H	-1.7177993375	 1.7873945479	 1.1414910508	 0.133677
H	-0.2144705585	 4.2060806219	 0.1387373843	 0.09195
H	 1.129524118	 4.0292516873	 2.2831926918	 0.110401
H	-0.0269877622	 2.7571673987	 2.7757213417	 0.110086
H	 1.9015893692	 2.4415065979	-0.5799359565	 0.094524
93.5914	210.1966	347.4956	429.5324	516.2301	610.7057	775.521	783.9882	822.1047	903.7015	927.1198	975.1519	1004.9923	1042.8344	1044.2647	1067.7958	1143.3591	1151.9947	1173.9865	1209.0953	1237.4799	1269.3098	1309.4238	1351.7836	1434.0268	1522.3305	1899.0997	3019.673	3054.7159	3066.5763	3082.7762	3107.2624	3145.1519
O=C1CC2COC12	O=C1C[C@H]2CO[C@@H]12	
InChI=1S/C5H6O2/c6-4-1-3-2-7-5(3)4/h3,5H,1-2H2	InChI=1S/C5H6O2/c6-4-1-3-2-7-5(3)4/h3,5H,1-2H2/t3-,5+/m0/s1
