13
gdb 4019	3.20593	1.70985	1.12062	8.9283	66.52	-0.1824	-0.0552	0.1272	971.8243	0.093351	-431.877352	-431.869068	-431.868124	-431.909912	29.73	
N	 0.021330953	 1.3414932357	-0.1534854323	-0.556887
C	-0.0647307912	-0.0000208095	 0.0098225079	 0.401296
N	 1.1042012722	-0.6647395433	 0.1560334287	-0.525086
H	 0.9865269579	-1.6729386359	 0.1225695314	 0.280471
H	 1.9360613621	-0.2762871523	-0.2601732689	 0.261952
C	-1.28568613	-0.7089064786	 0.0196814613	 0.148196
C	-2.5713045914	-0.0311199109	 0.1257547662	 0.069572
O	-3.6713853731	-0.5221204714	 0.0175702023	-0.267744
N	-1.0811662577	-2.0908853437	-0.0337426222	-0.097453
O	-2.053623437	-2.8316019225	-0.0022185697	-0.285508
H	 0.8467441172	 1.8190601972	 0.1705099048	 0.27072
H	-0.8231726321	 1.8857519021	-0.1919200166	 0.281374
H	-2.48591826	 1.064199333	 0.3618846271	 0.019097
92.698	138.6976	212.0181	230.4963	262.171	344.4258	369.2896	409.3076	444.8531	475.529	498.9487	521.378	640.456	686.8617	742.3973	873.639	995.1765	1065.0944	1090.2737	1193.0533	1263.8581	1460.6116	1506.3786	1548.5061	1593.9961	1637.2711	1672.1555	1790.1749	2732.8593	3496.3407	3603.2858	3663.1949	3721.1072
NC(=[NH2+])C(C=O)=N[O-]	[NH2]=C(N)C(=N[O])C=O	
InChI=1S/C3H5N3O2/c4-3(5)2(1-7)6-8/h1,8H,(H3,4,5)	InChI=1S/C3H5N3O2/c4-3(5)2(1-7)6-8/h1H,4-5H2
