17
gdb 1362	3.18001	2.31112	2.02665	1.0529	60.53	-0.2404	0.0705	0.3109	758.5937	0.145588	-346.836423	-346.827969	-346.827025	-346.868312	31.098	
C	-0.0605017518	 1.5369192305	-0.0874427543	-0.424739
C	 0.0404682801	 0.0339255743	 0.0468660375	-0.0806
C	 1.3636318677	-0.6962729896	-0.1626955262	 0.005734
O	 2.5425643137	 0.0341970105	-0.3523451647	-0.420109
C	 0.7307909444	-0.6444514732	 1.2055799491	 0.360355
C	 1.3801516612	 0.1303964027	 2.3275134894	-0.448058
O	 0.0596446953	-1.8117057474	 1.6177130529	-0.463729
H	 0.8916616769	 2.0275874855	 0.1286883021	 0.125352
H	-0.35143121	 1.8149832454	-1.1068372915	 0.113191
H	-0.8143959631	 1.9485204932	 0.5917346456	 0.123362
H	-0.8268204141	-0.51833211	-0.304650852	 0.095149
H	 1.3245935016	-1.6578769722	-0.6746026735	 0.084878
H	 2.5204830736	 0.412958352	-1.2377313579	 0.290069
H	 1.9524597252	 0.9796416509	 1.9522098719	 0.136032
H	 0.6260398492	 0.4868948024	 3.0361472634	 0.12067
H	 2.0781823443	-0.51557049	 2.8745934103	 0.106313
H	 0.7185899757	-2.4130955951	 1.9840864781	 0.27613
136.0073	167.5995	191.4403	205.0649	269.35	273.8449	310.6287	349.0542	399.0442	471.6965	506.5297	580.9996	701.3236	800.7993	863.3986	951.012	986.803	1025.8282	1046.2772	1081.9062	1126.923	1159.686	1165.1698	1238.0054	1258.4089	1308.7055	1342.3479	1372.9793	1408.8186	1418.0985	1461.3768	1485.3225	1490.6724	1504.9006	1516.3179	3028.2553	3033.1689	3087.3879	3089.9894	3099.4945	3116.1281	3144.1734	3150.9193	3782.4486	3797.5426
CC1C(O)C1(C)O	C[C@H]1[C@@H](O)[C@]1(C)O	
InChI=1S/C5H10O2/c1-3-4(6)5(3,2)7/h3-4,6-7H,1-2H3	InChI=1S/C5H10O2/c1-3-4(6)5(3,2)7/h3-4,6-7H,1-2H3/t3-,4+,5+/m0/s1
