10
gdb 4629	6.85818	1.4173	1.17457	4.077	58.06	-0.2543	-0.0636	0.1906	902.3962	0.061136	-413.478297	-413.472095	-413.47115	-413.508898	22.33	
N	-0.141789893	 1.2634119316	 0.0111166271	-0.561955
C	-0.0291135479	 0.0198390306	 0.0031219496	 0.510339
O	 1.13646339	-0.7400694674	-0.0074306713	-0.202131
C	 0.761623949	-2.0498733374	-0.0132008393	-0.115185
C	-0.5742548056	-2.1234976405	-0.0065508195	 0.222472
O	-1.0918194057	-0.8381185108	 0.0037197507	-0.220429
C	-1.4494049414	-3.2266940624	-0.0083892945	 0.236428
N	-2.1520560344	-4.1469490824	-0.0100748243	-0.315153
H	 0.765213669	 1.7214000357	 0.0090930564	 0.250684
H	 1.5315070199	-2.801401547	-0.0216814349	 0.194928
128.2408	158.9535	243.5247	439.5478	482.2066	552.636	582.2917	631.3079	721.8678	759.5422	779.3478	813.5185	884.2839	988.3844	1002.7277	1110.478	1201.1049	1288.659	1330.5575	1687.4075	1832.4565	2352.8059	3305.0376	3558.6961
N=C1OC=C(O1)C#N	[NH][C@H]1OC=C(O1)C#N	
InChI=1S/C4H2N2O2/c5-1-3-2-7-4(6)8-3/h2,6H	InChI=1S/C4H3N2O2/c5-1-3-2-7-4(6)8-3/h2,4,6H/t4-/m0/s1
