17
gdb 1511	8.29055	1.12223	1.01298	1.1385	60.94	-0.2446	-0.0093	0.2353	1142.851	0.14558	-346.875201	-346.8662	-346.865256	-346.909917	30.129	
C	 0.1001807475	 1.520258854	 0.0086522767	-0.374884
C	-0.0611045473	 0.00225158	 0.0025662601	-0.274459
C	-1.5137244694	-0.4572190355	 0.0139460709	 0.369279
O	-2.4348465955	 0.3299316472	 0.0269376383	-0.301586
C	-1.7460264982	-1.9595857691	 0.0081695748	-0.280185
C	-3.2181433576	-2.3427765107	 0.0199981084	-0.073502
O	-3.2819231759	-3.7620161155	 0.0131389832	-0.425369
H	 1.1581880798	 1.796597714	 0.0003449078	 0.109466
H	-0.3818776088	 1.967208813	-0.8644419754	 0.130927
H	-0.365801232	 1.958423864	 0.8948240071	 0.130952
H	 0.4253259909	-0.445943884	-0.8749405755	 0.12108
H	 0.441609715	-0.4546128631	 0.8663275693	 0.121098
H	-1.2537541786	-2.39552713	-0.8711665912	 0.128548
H	-1.2373701658	-2.4047203834	 0.8734697435	 0.128555
H	-3.7028101224	-1.917100431	 0.9099917581	 0.101463
H	-3.7194210898	-1.9078237369	-0.8562057629	 0.101455
H	-4.2087530619	-4.0176834831	 0.0204907766	 0.287163
34.379	60.2832	97.5148	142.7874	189.0901	271.3832	278.4441	340.9786	424.1437	472.8831	653.1416	716.2928	817.9074	840.4961	975.5658	987.8988	1009.4296	1052.8638	1088.5032	1132.4424	1132.5661	1209.5663	1254.3815	1281.5425	1309.5892	1339.7275	1379.5811	1413.5447	1445.2956	1454.7046	1471.8902	1491.8872	1497.9122	1522.5901	1799.9779	2997.3343	3016.3369	3024.5808	3031.0447	3043.137	3051.6926	3064.9022	3122.7654	3127.6189	3831.6495
CCC(=O)CCO	CCC(=O)CCO	
InChI=1S/C5H10O2/c1-2-5(7)3-4-6/h6H,2-4H2,1H3	InChI=1S/C5H10O2/c1-2-5(7)3-4-6/h6H,2-4H2,1H3
