11
gdb 4738	6.9559	1.37898	1.15083	0.4111	64.69	-0.2222	-0.0417	0.1805	936.9924	0.071947	-397.394043	-397.387419	-397.386474	-397.424738	24.708	
O	 0.1193435998	 1.3387763356	-0.0792598112	-0.430237
C	 0.0687777742	-0.0032574674	-0.0727587923	 0.320566
C	-0.038671149	-0.8451498277	-1.1375754857	-0.146147
O	-0.051756817	-2.1201714632	-0.6378827554	-0.162017
C	 0.0488139941	-1.9737887594	 0.7035453996	 0.231677
N	 0.1237806518	-0.7258483197	 1.091003153	-0.391804
C	 0.0612929613	-3.1341532175	 1.5021334135	 0.266166
C	 0.0716838832	-4.1268932785	 2.1812481059	-0.359184
H	 0.1952954183	 1.6205428416	 0.8408017003	 0.310628
H	-0.1096778372	-0.7278353317	-2.2028008851	 0.154093
H	 0.0812374005	-5.0008942221	 2.7849354775	 0.206258
142.7708	152.5709	328.3173	373.9994	393.2785	455.9512	562.4693	576.7982	600.4242	663.0781	696.2484	719.5711	738.6491	753.9069	985.0436	1036.3859	1135.9579	1180.3028	1250.3293	1335.0811	1408.2282	1549.2295	1679.7011	2243.0595	3314.6962	3501.2439	3803.8009
OC1=COC(=N1)C#C	Oc1coc(n1)C#C	
InChI=1S/C5H3NO2/c1-2-5-6-4(7)3-8-5/h1,3,7H	InChI=1S/C5H3NO2/c1-2-5-6-4(7)3-8-5/h1,3,7H
