11
gdb 4252	4.05236	2.12156	1.39252	3.9379	56.4	-0.2732	-0.0598	0.2134	788.7318	0.07427	-430.782444	-430.776268	-430.775324	-430.813289	22.374	
N	-0.0561008172	 1.2804856591	 0.3385645423	-0.491468
C	-0.0748541954	 0.0832237633	-0.0480015209	 0.43853
O	 1.1499344494	-0.5339921524	-0.4369783383	-0.254845
C	 1.2467141419	-1.8121091518	-0.8693431134	 0.498997
O	 2.2858006038	-2.3088485097	-1.1888981569	-0.351649
N	 0.0277183824	-2.4821721876	-0.9005745698	-0.369065
C	-1.1415880292	-1.8747641759	-0.5235615205	 0.109424
N	-1.2357219167	-0.6675596903	-0.1156267992	-0.265054
H	 0.8937166888	 1.6502307019	 0.3135966658	 0.242385
H	 0.0537655861	-3.4394650959	-1.2163190724	 0.28753
H	-2.0315245139	-2.4963104709	-0.5898240466	 0.155216
82.6703	139.1206	386.2649	406.0087	523.5865	546.0808	580.1208	586.4934	755.2192	770.7175	778.6951	885.2446	953.905	977.0945	982.9669	1002.0135	1142.4554	1172.0048	1344.9712	1422.7188	1471.5467	1717.4306	1757.46	1890.7922	3170.6959	3511.1588	3643.3291
N=C1OC(=O)NC=N1	[NH]C1=N[CH]NC(=O)O1	
InChI=1S/C3H3N3O2/c4-2-5-1-6-3(7)8-2/h1H,(H2,4,5,6,7)	InChI=1S/C3H3N3O2/c4-2-5-1-6-3(7)8-2/h1H,(H2,4,5,6,7)
