12
gdb 4236	4.44037	2.14101	2.01553	2.2018	43.02	-0.316	0.0837	0.3997	662.1518	0.08696	-454.878708	-454.872379	-454.871435	-454.909382	22.913	
F	 0.2775687894	 0.0923702638	 0.1126776105	-0.0882
C	 0.000728368	 1.4081842711	 0.0636999719	 0.277664
F	 1.1523451386	 2.0492755067	-0.1979762132	-0.08009
F	-0.8039658422	 1.6080568652	-0.9937546129	-0.08009
C	-0.6255316055	 1.8955137521	 1.3330676531	-0.135688
C	-1.5599414977	 0.9901198323	 2.0921622861	-0.265159
C	-0.1954747219	 1.2978486315	 2.6471951676	-0.26516
H	-0.8502623761	 2.955519175	 1.297824876	 0.116294
H	-2.4274749998	 1.446205766	 2.5539095464	 0.12412
H	-1.726431642	-0.002706781	 1.6921380143	 0.136095
H	 0.5475253805	 0.5101362876	 2.6171421786	 0.136095
H	-0.1145072712	 1.9678591298	 3.4947622016	 0.124119
74.5503	209.6174	237.0082	382.7638	423.3545	527.6343	580.8221	623.4936	770.8839	801.397	834.1793	938.9163	961.6613	1058.7655	1073.9412	1093.6293	1129.3781	1181.5285	1184.2232	1206.9688	1226.6892	1285.3081	1434.6237	1463.1834	1506.2964	3149.1405	3151.9011	3181.5264	3232.0288	3245.5373
FC(F)(F)C1CC1	FC(F)(F)C1CC1	
InChI=1S/C4H5F3/c5-4(6,7)3-1-2-3/h3H,1-2H2	InChI=1S/C4H5F3/c5-4(6,7)3-1-2-3/h3H,1-2H2
