13
gdb 3112	6.4676	2.122	1.85305	1.885	61.33	-0.2444	0.0194	0.2638	690.8584	0.100677	-307.243079	-307.236869	-307.235925	-307.27285	23.691	
C	 0.021453829	-1.2106509649	 0.0918117299	-0.388478
C	 0.0577713753	-0.0108404674	 0.0173756706	 0.194487
C	 0.0619485605	 1.4043848054	-0.1190795341	 0.295672
C	-0.7246667165	 2.271605875	-1.1240180128	-0.30633
C	 0.43921588	 3.3210928744	-1.0657884287	-0.241449
C	 1.1528893467	 2.4108423059	-0.0591398673	-0.04706
O	 0.274003153	 2.2244343935	 1.0475727677	-0.28105
H	-0.0029507649	-2.2694979979	 0.1697242679	 0.193049
H	-0.8205443924	 1.8023700539	-2.1047563278	 0.120187
H	-1.7054623925	 2.5933958032	-0.7688821762	 0.117329
H	 0.9683709368	 3.4103011465	-2.0169838813	 0.112198
H	 0.1919732604	 4.3154009068	-0.6878809248	 0.117591
H	 2.2135057647	 2.2775052857	 0.1215221468	 0.113854
159.7284	166.4134	291.5356	443.8472	506.1203	541.287	582.7258	610.1725	670.5194	733.6154	774.8797	869.974	916.5933	932.6864	948.0828	1012.2304	1057.0153	1135.3076	1158.6148	1212.17	1219.9055	1268.5374	1269.747	1409.7077	1464.9845	1486.7948	2240.8313	3071.1062	3079.6441	3124.3894	3142.4432	3188.1462	3502.212
C#CC12CCC1O2	C#C[C@]12CC[C@H]1O2	
InChI=1S/C6H6O/c1-2-6-4-3-5(6)7-6/h1,5H,3-4H2	InChI=1S/C6H6O/c1-2-6-4-3-5(6)7-6/h1,5H,3-4H2/t5-,6+/m1/s1
