14
gdb 3733	7.04926	1.94697	1.7191	6.1034	57.79	-0.2475	0.0189	0.2664	739.1833	0.115435	-320.774305	-320.767855	-320.766911	-320.805382	22.638	
C	-0.0325230632	 1.5594042485	 0.0334348149	-0.372309
C	 0.0055112423	 0.0303336106	-0.0044389814	-0.166528
N	 0.6789557437	-0.4927289786	-1.1874513251	 0.000127
C	 0.1402616925	-0.7669450249	-2.413176889	 0.018165
N	 1.0598535764	-1.1685288073	-3.2533560948	-0.222743
N	 2.2616329783	-1.1607407605	-2.572608648	-0.222779
C	 2.0098542719	-0.7548397992	-1.3541529919	 0.018179
H	 0.9788124831	 1.9752139194	 0.0349719323	 0.137563
H	-0.5639504917	 1.9585163523	-0.8349016846	 0.137504
H	-0.5462308575	 1.8985308999	 0.9378360612	 0.129617
H	 0.5235465566	-0.3645171106	 0.8744911797	 0.133376
H	-1.0079788848	-0.38129653	 0.0106202995	 0.133399
H	-0.912808166	-0.6644220511	-2.6271972006	 0.138208
H	 2.7337526884	-0.6407306386	-0.5615428722	 0.138222
46.9404	135.6141	213.932	344.1459	395.2756	646.7047	669.0607	697.0856	793.1675	816.8862	846.4432	959.1352	965.6684	1025.3867	1084.063	1107.2998	1107.9581	1209.7307	1230.8159	1274.3975	1380.3146	1389.1316	1408.0263	1415.5137	1484.6541	1490.5421	1497.5043	1505.4914	1553.6876	3046.666	3059.1282	3097.415	3122.9629	3130.2555	3257.3483	3261.6363
CCN1C=NN=C1	CCn1cnnc1	
InChI=1S/C4H7N3/c1-2-7-3-5-6-4-7/h3-4H,2H2,1H3	InChI=1S/C4H7N3/c1-2-7-3-5-6-4-7/h3-4H,2H2,1H3
