11
gdb 4250	4.07429	2.11459	1.39209	4.6313	56.13	-0.2756	-0.0641	0.2115	789.376	0.074289	-430.781834	-430.775649	-430.774705	-430.812631	22.427	
N	-0.0892360699	 1.28183428	 0.3767776687	-0.555033
C	-0.010838878	 0.0989990456	-0.050443425	 0.483894
N	-1.1628506029	-0.6702871852	-0.2121854336	-0.313595
C	-1.105119165	-1.9411081379	-0.6686414099	 0.120935
N	-0.0286891057	-2.5685390419	-0.9952003382	-0.329903
C	 1.1733320511	-1.891362205	-0.8710342463	 0.450075
O	 2.2503279486	-2.3240501049	-1.1286133596	-0.302575
O	 1.1310961269	-0.5483238027	-0.3903170396	-0.250217
H	 0.8336893332	 1.7065824342	 0.4383886723	 0.247129
H	-2.034600341	-0.224460472	 0.0301420079	 0.292105
H	-2.0639305274	-2.4482456702	-0.7559828566	 0.157185
99.5661	122.9858	373.4032	400.9335	526.3353	549.7388	585.7249	615.4431	721.125	777.7955	793.9073	838.4261	919.7237	986.6557	1005.9156	1006.5208	1102.3752	1190.196	1377.0808	1416.6162	1496.9873	1685.6793	1778.2426	1898.322	3164.9514	3533.9195	3640.4763
N=C1NC=NC(=O)O1	[NH][C]1NC=NC(=O)O1	
InChI=1S/C3H3N3O2/c4-2-5-1-6-3(7)8-2/h1H,(H2,4,5,6,7)	InChI=1S/C3H3N3O2/c4-2-5-1-6-3(7)8-2/h1H,(H2,4,5,6,7)
