16
gdb 415	5.34711	2.88729	2.39735	1.7595	56.33	-0.2587	0.0877	0.3465	616.3779	0.141536	-271.623066	-271.616004	-271.61506	-271.653614	25.512	
C	-0.3160112595	 1.4285894041	-0.0440569159	-0.381507
C	 0.2533680014	 0.0106058575	 0.0897885378	-0.240663
C	 0.8598091979	-0.5193796414	-1.1989992945	 0.440557
C	 2.0947603746	 0.1835496833	-1.721880024	-0.459539
C	 0.6158387388	-1.918068348	-1.5835843702	-0.230799
O	-0.1089945496	-0.8555382976	-2.2083974657	-0.276791
H	 0.4648960105	 2.1654980435	-0.2555594885	 0.116292
H	-1.0490304586	 1.4692100063	-0.855315906	 0.134424
H	-0.8145003895	 1.7344887898	 0.8804058169	 0.113108
H	 1.0155487466	-0.0168669572	 0.8792931806	 0.096427
H	-0.5465670571	-0.670893297	 0.3983173845	 0.102134
H	 2.9109463682	 0.1274230136	-0.9932355979	 0.118431
H	 2.4293808243	-0.2746589256	-2.6556400727	 0.125742
H	 1.8934435773	 1.2410470199	-1.9191229527	 0.128288
H	 1.329053765	-2.4365767497	-2.2240933406	 0.106728
H	 0.0289962598	-2.5652308614	-0.9321469412	 0.10717
77.2796	193.8755	217.3099	252.416	362.2946	370.5113	401.2711	505.5174	694.1625	780.762	827.7852	895.0357	923.3824	995.1742	1004.1915	1058.8655	1099.2043	1132.8989	1136.1502	1172.4872	1260.2612	1308.811	1354.2817	1403.985	1408.656	1425.4947	1471.4576	1487.5968	1496.0072	1505.9307	1509.8087	1532.6884	3025.9638	3038.257	3041.8587	3069.8404	3074.2811	3101.9686	3109.9614	3116.9649	3124.3077	3158.1112
CCC1(C)CO1	CC[C@@]1(C)CO1	
InChI=1S/C5H10O/c1-3-5(2)4-6-5/h3-4H2,1-2H3	InChI=1S/C5H10O/c1-3-5(2)4-6-5/h3-4H2,1-2H3/t5-/m0/s1
