14
gdb 2415	5.10426	2.40526	2.01687	3.1725	53.66	-0.2506	0.0629	0.3135	652.7021	0.114538	-361.630982	-361.625006	-361.624062	-361.660456	23.537	
O	 0.1416936232	 1.4215112356	-0.0952906808	-0.451867
C	 0.0888916486	 0.0372574291	-0.050992893	 0.218139
C	 0.0274292969	-0.6717106412	 1.3396302206	-0.13531
N	-1.369109092	-0.0819616541	 1.4595882241	-0.363061
C	-1.3059973359	-0.6634209733	 0.0526782906	-0.104403
C	-0.5978783786	-1.9087211997	 0.6237781004	 0.135157
O	 0.1406299109	-2.685068487	-0.2801370049	-0.430271
H	-0.4974530023	 1.7206250556	 0.5682759699	 0.290427
H	 0.785317073	-0.3733317936	-0.7777827419	 0.105922
H	 0.7382917437	-0.6305333634	 2.1670807389	 0.080164
H	-1.9550737292	-0.670598837	 2.0602168631	 0.211152
H	-2.1556292902	-0.6119027857	-0.629228109	 0.086401
H	-1.2353102732	-2.5182086074	 1.2803443592	 0.067997
H	 0.662355905	-3.3222192977	 0.2179381326	 0.289553
228.5701	256.2804	324.0429	358.4012	393.5383	585.9898	588.9179	668.298	779.21	817.774	870.8118	889.2314	905.7607	912.2513	1035.5998	1104.304	1108.6536	1123.5706	1148.0561	1158.3788	1181.7148	1193.3706	1235.9538	1267.5327	1284.1097	1310.3954	1344.29	1422.8878	1460.8701	3003.0478	3099.8215	3113.9416	3162.4489	3387.0199	3730.5239	3820.5881
OC1C2NC1C2O	O[C@H]1[C@H]2N[C@@H]1[C@H]2O	
InChI=1S/C4H7NO2/c6-3-1-4(7)2(3)5-1/h1-7H	InChI=1S/C4H7NO2/c6-3-1-4(7)2(3)5-1/h1-7H/t1-,2+,3-,4-
