13
gdb 4181	3.6665	1.83575	1.38109	1.7223	58.	-0.2508	-0.0144	0.2364	851.0046	0.09414	-435.632781	-435.625711	-435.624767	-435.664142	26.354	
O	-0.0497310512	 1.3357822738	-0.040005093	-0.378007
N	 0.0621628571	-0.0588996439	-0.0664838443	-0.257552
C	-1.0684265048	-0.6193003534	 0.0283324692	 0.394401
C	-1.43353243	-2.0649071779	-0.0233595339	-0.07886
O	-2.2940114873	-2.2908246702	 1.1243792659	-0.251713
C	-2.8732126996	-1.7167454641	-0.0503417021	-0.009631
C	-2.5663399717	-0.2004094706	 0.0470190585	 0.031127
O	-3.0860905761	 0.4781699772	 1.1482505806	-0.420268
H	 0.8682404458	 1.6174866802	-0.1266229016	 0.311592
H	-0.9016164821	-2.916142486	-0.4255577905	 0.126106
H	-3.7082054419	-2.2327777837	-0.5082915912	 0.120017
H	-2.8298997564	 0.3658932981	-0.8509625768	 0.118798
H	-2.8946860017	-0.0716614395	 1.919362299	 0.293988
105.5109	166.2917	215.9374	295.6386	371.4767	455.4623	473.0005	500.1565	628.7887	668.6057	718.4148	798.7478	839.4665	874.9828	908.6732	979.8119	992.6334	1042.6964	1117.5865	1138.9612	1189.7932	1219.6838	1260.0972	1286.8646	1347.0898	1420.4718	1432.2571	1785.4926	3085.3042	3197.8693	3225.5884	3773.0171	3806.4474
ON=C1C2OC2C1O	ON=C1[C@H]2O[C@H]2[C@H]1O	
InChI=1S/C4H5NO3/c6-2-1(5-7)3-4(2)8-3/h2-4,6-7H	InChI=1S/C4H5NO3/c6-2-1(5-7)3-4(2)8-3/h2-4,6-7H/t2-,3+,4-/m0/s1
