15
gdb 2681	12.89712	0.811	0.806	1.3425	63.98	-0.2508	0.0307	0.2814	1406.0669	0.122265	-345.595021	-345.586164	-345.585219	-345.629545	28.664	
C	-0.0670296923	 1.368369631	-0.2695442175	-0.218378
O	-0.0380299766	-0.0393839508	-0.3005342261	-0.227253
C	-1.1907571003	-0.6058211454	 0.2922807809	-0.201299
C	-1.1304311398	-2.0586914116	 0.2332783057	-0.00202
C	-1.1091923957	-3.2606742589	 0.1922743966	 0.175715
C	-1.0569404697	-4.7154303751	 0.1620561921	-0.218132
O	-1.8712627251	-5.2069155652	-0.8955709227	-0.408533
H	 0.8520079625	 1.7207841104	-0.7427998501	 0.13124
H	-0.9303533477	 1.7733389098	-0.8216853934	 0.105229
H	-0.1084042399	 1.7557296098	 0.7613497623	 0.10375
H	-1.2821076375	-0.2779191527	 1.3430569744	 0.113624
H	-2.1017029632	-0.2546079485	-0.223828103	 0.118585
H	-0.0072423699	-5.027960293	 0.0377263066	 0.121209
H	-1.390932847	-5.106676924	 1.1371708217	 0.116569
H	-1.7979663278	-6.1667912958	-0.8907541175	 0.289693
35.3637	74.4281	99.4575	142.23	225.3835	231.0848	291.1211	323.827	370.8571	480.9078	571.3923	798.8656	977.3818	1020.5371	1028.1456	1049.2672	1135.3607	1168.0251	1182.572	1220.5151	1245.3004	1255.884	1260.5221	1410.7749	1459.5048	1477.2517	1484.4067	1493.5782	1499.776	1515.6414	2377.0708	2942.586	2960.4405	2962.7262	2967.2429	2981.6729	3009.3546	3120.2737	3817.5906
COCC#CCO	COCC#CCO	
InChI=1S/C5H8O2/c1-7-5-3-2-4-6/h6H,4-5H2,1H3	InChI=1S/C5H8O2/c1-7-5-3-2-4-6/h6H,4-5H2,1H3
