17
gdb 3091	3.58017	1.97506	1.61217	3.4656	65.88	-0.2409	-0.0154	0.2255	840.4652	0.146881	-309.72185	-309.713874	-309.71293	-309.75387	28.598	
C	-0.0460955593	 1.5629328423	 0.1400792597	-0.412327
C	 0.0852143156	 0.0623631356	-0.0240500999	-0.025251
C	 0.5566669629	-0.600869243	-1.2795619518	-0.025258
C	 0.9573833538	 0.1511545197	-2.5324687419	-0.41233
C	 1.4386143816	-0.6648306693	-0.0231613415	-0.128966
C	 2.7165157349	 0.0698165156	 0.0686994997	 0.162622
O	 3.6888923531	-0.3471407846	 0.6542513191	-0.274998
H	 0.6901078755	 2.1260308652	-0.4368944644	 0.123022
H	-1.0382947906	 1.8910958561	-0.1881764908	 0.124163
H	 0.0684097199	 1.8511488105	 1.1900977603	 0.129608
H	-0.6758962008	-0.4871879008	 0.5241945959	 0.098909
H	 0.0831114845	-1.5549579364	-1.4971149272	 0.098907
H	 1.4001746773	 1.1276085053	-2.3264488754	 0.123027
H	 1.6844668291	-0.42342282	-3.1155026104	 0.129604
H	 0.0801641027	 0.3179336596	-3.1669568085	 0.124165
H	 1.4772295419	-1.61761933	 0.4946640353	 0.10241
H	 2.7504822681	 1.057435124	-0.4403455381	 0.062691
88.7819	165.507	179.3724	213.4668	232.2331	255.977	390.3527	420.0555	513.2071	521.6864	713.6093	789.3222	894.4697	943.5464	943.876	1020.794	1025.9337	1052.225	1087.5154	1122.2629	1156.1236	1186.4508	1189.753	1261.1998	1341.5258	1379.3578	1420.4758	1422.7098	1435.3535	1454.1069	1489.686	1493.1174	1502.4253	1516.3876	1803.9149	2887.2578	3037.5038	3041.077	3095.7609	3097.0678	3113.9781	3124.9002	3134.5304	3144.5345	3170.0289
CC1C(C)C1C=O	C[C@H]1[C@@H](C)[C@H]1C=O	
InChI=1S/C6H10O/c1-4-5(2)6(4)3-7/h3-6H,1-2H3	InChI=1S/C6H10O/c1-4-5(2)6(4)3-7/h3-6H,1-2H3/t4-,5+,6-
