15
gdb 838	6.96792	1.94593	1.54426	1.4975	64.21	-0.1791	0.0592	0.2383	791.4086	0.126516	-304.73536	-304.728088	-304.727144	-304.766384	26.66	
C	 0.0224594147	 1.522465457	 0.0068367133	-0.499558
C	-0.0048502934	 0.0238469642	 0.0142383255	 0.298229
C	-0.0596824212	-0.7974394957	-1.0862128794	-0.186859
N	-0.0554847862	-2.1050519444	-0.6470996689	-0.265302
C	 0.0035505132	-2.1322204678	 0.7225224929	 0.29365
N	-0.0390960658	-3.3762927586	 1.3892702103	-0.608271
C	 0.0408163396	-0.8283753935	 1.1635277329	-0.305928
H	 0.9367432867	 1.9182156076	 0.4657234222	 0.118726
H	-0.0273159239	 1.9122193665	-1.014459226	 0.114453
H	-0.8215395354	 1.9476279614	 0.5633817091	 0.119531
H	-0.0933667173	-0.5622497742	-2.1380985794	 0.106294
H	-0.1942003876	-2.9226855141	-1.21460203	 0.254881
H	 0.8645747092	-3.8420119444	 1.3906801454	 0.24121
H	-0.3139053031	-3.2481080471	 2.3555592295	 0.245
H	 0.1133710805	-0.514689597	 2.1948125325	 0.073942
114.9771	123.7401	193.7951	270.5441	312.834	417.761	470.4499	587.2305	635.1199	653.9432	692.5282	740.3161	776.6614	835.2721	984.2129	999.8239	1009.8053	1063.7174	1121.234	1155.2524	1190.298	1279.2811	1325.1108	1417.0637	1420.8136	1472.8838	1482.5817	1505.4747	1559.8085	1632.241	1657.8043	3018.5201	3064.158	3098.61	3232.8959	3257.598	3484.3396	3592.2165	3683.2321
CC1=CNC(N)=C1	Cc1c[nH]c(N)c1	
InChI=1S/C5H8N2/c1-4-2-5(6)7-3-4/h2-3,7H,6H2,1H3	InChI=1S/C5H8N2/c1-4-2-5(6)7-3-4/h2-3,7H,6H2,1H3
