16
gdb 2581	3.1875	2.6544	1.82658	2.0775	56.38	-0.2529	0.0659	0.3188	737.124	0.137467	-362.875945	-362.868549	-362.867605	-362.907376	27.24	
O	 0.2674650719	 1.229276768	 0.2899528854	-0.429991
C	 0.0923994363	-0.0986210062	-0.1704995611	-0.128626
C	-1.3611267971	-0.534199159	-0.1395191594	 0.283399
C	-2.2712196594	 0.1906585664	-1.1103298765	-0.123857
O	-2.3728777759	 1.5744698947	-0.7659383045	-0.421364
C	-1.7112356988	-1.8945251392	 0.3359975445	-0.290127
N	-2.00209506	-0.7212265559	 1.1794915112	-0.35357
H	-0.4159979879	 1.7593734382	-0.1447565329	 0.288093
H	 0.4861577235	-0.2259367147	-1.1935376514	 0.088154
H	 0.690183299	-0.7410583058	 0.4873376739	 0.095294
H	-1.8658448809	 0.1615578629	-2.1269614039	 0.114763
H	-3.2627950558	-0.2804350408	-1.1214492876	 0.102651
H	-2.7405930361	 1.5924352534	 0.1271804415	 0.299076
H	-2.5864731152	-2.4025575936	-0.0603823419	 0.119297
H	-0.8997162937	-2.5572289707	 0.6255318853	 0.117004
H	-1.3008892601	-0.6307562277	 1.9112656173	 0.239803
97.4816	112.9516	223.3621	291.5708	335.554	353.8229	423.2107	486.7025	550.2686	635.5989	761.5338	896.8871	904.2037	930.2772	948.5886	988.4104	1027.2143	1053.5628	1076.8536	1090.9302	1151.8371	1198.3782	1224.3826	1266.6961	1343.8681	1352.7428	1379.9901	1411.0465	1431.067	1470.5045	1493.2957	1507.4981	1516.5615	2957.5381	3017.9317	3049.2599	3084.7966	3106.8129	3190.1542	3496.7718	3723.0634	3777.9393
OCC1(CO)CN1	OCC1(CO)CN1	
InChI=1S/C4H9NO2/c6-2-4(3-7)1-5-4/h5-7H,1-3H2	InChI=1S/C4H9NO2/c6-2-4(3-7)1-5-4/h5-7H,1-3H2
