12
gdb 4732	6.85767	1.37554	1.14715	1.7698	69.16	-0.2068	-0.0332	0.1735	961.154	0.084192	-377.515171	-377.508193	-377.507249	-377.546132	26.116	
N	-0.0010684814	 1.3944800955	 0.1571293968	-0.607054
C	-0.0385482912	 0.011896986	 0.0497172968	 0.26118
C	-1.0961116685	-0.8506185713	 0.0033759784	-0.117105
O	-0.5921466379	-2.1252404192	-0.0288819845	-0.167673
C	 0.7505245078	-1.963841446	 0.0013324332	 0.23559
N	 1.1328018221	-0.7153932088	 0.0464206149	-0.351541
C	 1.5592363609	-3.1184388062	-0.0212339724	 0.256992
C	 2.246369347	-4.1055656505	-0.04118779	-0.360928
H	 0.8877903418	 1.7689758807	-0.1457437808	 0.259158
H	-0.7726804701	 1.8710660171	-0.2872259464	 0.250645
H	-2.1666345369	-0.7518958006	-0.0075265921	 0.138372
H	 2.8573263864	-4.9743614066	-0.0579326638	 0.202363
140.802	151.8659	241.6315	323.7024	373.9797	452.3878	558.345	573.1532	593.6279	637.3225	661.3064	692.0401	719.5241	743.547	763.9592	982.9666	1031.1217	1106.5792	1135.6581	1235.1043	1335.5641	1397.853	1550.7268	1627.1614	1663.3237	2242.3409	3301.3845	3501.0884	3559.4563	3658.6149
NC1=COC(=N1)C#C	Nc1coc(n1)C#C	
InChI=1S/C5H4N2O/c1-2-5-7-4(6)3-8-5/h1,3H,6H2	InChI=1S/C5H4N2O/c1-2-5-7-4(6)3-8-5/h1,3H,6H2
