13
gdb 3535	7.49992	2.34074	2.29136	2.5231	52.81	-0.2311	0.0692	0.3003	594.1782	0.101773	-344.345376	-344.339986	-344.339042	-344.374266	21.199	
O	-0.0057449249	 1.4821299397	-0.0629800176	-0.437076
C	 0.0646527923	 0.0751639392	-0.0299065247	 0.099432
C	 0.0585678753	-0.6167621111	 1.3509806281	-0.140417
C	-1.474869545	-0.3612957131	 1.5258979235	 0.101041
O	-1.7939238617	-1.7518473135	 1.8284623289	-0.326499
C	-0.7663463347	-1.8185678393	 0.7957114733	 0.082325
C	-1.3111094507	-0.5992910264	-0.0109810227	-0.107667
H	 0.8809579327	 1.8338117238	 0.063305567	 0.285848
H	 0.7844215939	-0.3157104652	-0.7619912009	 0.068818
H	 0.8132393914	-0.6477701315	 2.1367950307	 0.082992
H	-1.9989194482	 0.4275242983	 2.0603162344	 0.105658
H	-0.4339006623	-2.7947473909	 0.4460229766	 0.096984
H	-2.0982236981	-0.6044305001	-0.7634237867	 0.088561
206.6523	279.3035	339.8642	554.6234	558.3845	747.6883	783.2855	801.9587	834.9498	859.7547	897.5631	910.2659	945.412	973.487	1031.5186	1099.944	1102.3499	1127.8293	1154.7428	1158.5738	1176.1601	1179.0447	1211.7171	1284.656	1307.5908	1336.1412	1436.9001	3009.8721	3119.0291	3129.5475	3137.6351	3155.0233	3821.5986
OC1C2C3OC2C13	O[C@H]1[C@H]2[C@@H]3O[C@H]2[C@H]13	
InChI=1S/C5H6O2/c6-3-1-4-2(3)5(1)7-4/h1-6H	InChI=1S/C5H6O2/c6-3-1-4-2(3)5(1)7-4/h1-6H/t1-,2+,3-,4-,5+
