11
gdb 437	8.5241	3.71634	2.63002	3.4388	48.64	-0.2323	-0.0049	0.2275	470.3702	0.08707	-281.491976	-281.486859	-281.485915	-281.520391	18.459	
N	-0.0745408588	 1.2973297839	 0.0075458531	-0.542873
C	 0.000728566	 0.0306312903	 0.0007307198	 0.384145
C	-1.1679223018	-0.953699947	 0.0026002853	-0.229943
N	-0.5872103478	-2.3052431738	-0.0078574709	-0.241907
C	 0.6761829273	-2.133804181	-0.0144371817	 0.068152
N	 1.1144223893	-0.8159537541	-0.0100138574	-0.334482
H	 0.8472475959	 1.7375272771	 0.0043817541	 0.207303
H	-1.7985110077	-0.8131944564	 0.8866400111	 0.148137
H	-1.8089626209	-0.8040872607	-0.87238819	 0.148139
H	 1.4049601508	-2.9384769486	-0.0229362784	 0.135024
H	 2.0738108776	-0.5130139097	-0.014700565	 0.258305
125.3081	357.6489	434.2654	469.6265	585.4374	669.3339	853.2933	869.3898	890.7412	929.5203	987.3834	1001.6918	1082.8142	1084.5414	1186.3641	1267.4165	1304.5183	1351.9728	1413.5359	1451.6002	1686.6597	1764.946	3055.8707	3088.2305	3190.8671	3453.4749	3662.8774
N=C1CN=CN1	[NH][C]1CN=CN1	
InChI=1S/C3H5N3/c4-3-1-5-2-6-3/h2H,1H2,(H2,4,5,6)	InChI=1S/C3H5N3/c4-3-1-5-2-6-3/h2H,1H2,(H2,4,5,6)
