19
gdb 1890	4.81663	2.02164	1.57387	1.2058	67.6	-0.2459	0.0852	0.3311	851.3752	0.172079	-310.942587	-310.934911	-310.933967	-310.974709	28.329	
C	 0.0193768865	 1.5669404982	 0.1716007724	-0.408724
C	 0.1118421441	 0.0562436912	 0.0506804802	 0.164509
C	 0.8062816652	-0.4690958158	-1.2283701965	-0.233934
C	 1.5875530937	-1.7131190887	-0.738770129	-0.234106
C	 1.2656969256	-1.7783375062	 0.7733816414	 0.164571
C	 2.4077669443	-2.229176374	 1.6665858788	-0.408725
O	 0.8926229797	-0.4515829332	 1.1259639265	-0.269148
H	 1.0179033698	 2.0130800404	 0.1255791578	 0.119753
H	-0.5846437216	 1.9798274896	-0.6424428018	 0.113265
H	-0.4419215795	 1.8524946262	 1.1211730403	 0.123264
H	-0.9022551346	-0.3782011369	 0.1100555747	 0.057073
H	 0.0822513596	-0.7011978559	-2.0137495627	 0.09853
H	 1.4875753929	 0.2895126438	-1.6254113274	 0.100881
H	 1.2937021072	-2.6317397369	-1.2532600094	 0.098549
H	 2.6635725575	-1.5837438021	-0.8895038271	 0.100886
H	 0.3977845623	-2.4449780898	 0.9248972785	 0.057087
H	 3.2733407101	-1.5718297286	 1.5366144035	 0.119744
H	 2.1106698109	-2.203332165	 2.7187702425	 0.123263
H	 2.7068455566	-3.2523719664	 1.4183770673	 0.113263
43.8027	128.2244	226.5744	231.4422	275.1383	355.2825	451.8846	470.7814	599.7076	617.1648	820.7266	829.6736	873.2657	885.0608	941.6046	964.7067	995.3121	1024.6795	1111.2928	1113.2021	1138.8899	1163.5765	1182.6974	1224.9464	1263.5722	1281.1274	1309.2946	1346.2253	1379.4373	1383.2072	1399.4317	1406.9355	1426.7013	1482.9641	1484.2391	1488.0398	1498.5901	1500.2059	1509.22	2930.7253	2937.889	3037.8943	3038.3246	3047.9776	3059.7363	3088.0856	3107.2846	3111.5386	3112.5921	3116.157	3116.7986
CC1CCC(C)O1	C[C@H]1CC[C@@H](C)O1	
InChI=1S/C6H12O/c1-5-3-4-6(2)7-5/h5-6H,3-4H2,1-2H3	InChI=1S/C6H12O/c1-5-3-4-6(2)7-5/h5-6H,3-4H2,1-2H3/t5-,6+
