12
gdb 4618	5.75551	1.64342	1.27839	1.4639	63.08	-0.2139	-0.0756	0.1384	862.0749	0.084771	-414.674829	-414.668397	-414.667453	-414.705422	24.333	
O	 0.0244181246	 1.3583556722	 0.2863184783	-0.426441
C	-0.028347901	 0.0317856324	 0.0208850158	 0.339596
C	-1.1956474931	-0.6277571774	-0.0854415696	-0.044368
O	-1.2237185097	-1.9680404893	-0.3541742157	-0.222452
C	-0.0495219162	-2.6680063873	-0.5212398386	 0.365925
N	-0.0166354323	-3.913300402	-0.772232572	-0.529353
C	 1.1694604736	-1.8701641302	-0.388281532	-0.019239
N	 1.1852744563	-0.6088085195	-0.1351357385	-0.297835
H	 0.9616736445	 1.5896440308	 0.3116852763	 0.303372
H	-2.179061796	-0.1954777721	 0.0235286544	 0.149581
H	-0.9584957692	-4.3024434562	-0.8292706795	 0.228759
H	 2.1069214485	-2.4038819214	-0.5166166089	 0.152455
94.8083	308.2553	350.6311	352.4461	388.4783	432.0378	514.9544	541.4245	631.7714	752.3422	809.0062	815.615	820.7899	855.3915	948.2211	963.281	1064.4014	1172.5656	1228.0576	1279.1889	1327.1747	1373.0835	1420.6913	1613.9367	1700.7759	1738.6287	3181.6317	3249.6527	3488.0228	3792.739
OC1=COC(=N)C=N1	OC1=COC(=C[N]1)[NH]	
InChI=1S/C4H4N2O2/c5-3-1-6-4(7)2-8-3/h1-2,5,7H	InChI=1S/C4H4N2O2/c5-3-1-6-4(7)2-8-3/h1-2,5,7H
