16
gdb 4581	5.57257	1.46926	1.16579	2.1793	77.6	-0.1714	0.0103	0.1817	994.9633	0.133402	-342.850115	-342.84277	-342.841826	-342.881105	29.064	
N	-0.0167431442	 1.4349260596	 0.1167729771	-0.594704
C	 0.0019062462	 0.0291319303	 0.0424444055	 0.285541
C	-1.1855903123	-0.7103742629	 0.0448660394	-0.161451
C	-1.1667551177	-2.0999073639	 0.037488177	-0.161449
C	 0.0403486726	-2.8068875717	 0.0273824059	 0.285542
N	 0.0598176358	-4.21338099	 0.0867741108	-0.594704
C	 1.2278309141	-2.0673715434	 0.0228743964	-0.161453
C	 1.2089959608	-0.6778368396	 0.0302561444	-0.161452
H	 0.8021289866	 1.8688419207	-0.2876270924	 0.238819
H	-0.8519682104	 1.8463658873	-0.2775492804	 0.238819
H	-2.139447164	-0.1901298527	 0.0537574724	 0.077214
H	-2.1061591169	-2.6458794159	 0.0407192754	 0.077214
H	-0.763986915	-4.6430970301	-0.312054451	 0.238819
H	 0.8901100981	-4.6206205715	-0.3220587371	 0.238818
H	 2.1816921831	-2.5876173403	 0.0145471083	 0.077214
H	 2.1484045332	-0.131869106	 0.0275940884	 0.077214
149.3737	226.2757	232.7873	316.5134	354.3702	414.2904	423.549	472.1192	521.2252	650.7929	658.6954	701.5	732.9765	789.7911	820.3847	838.9465	860.3924	908.4489	926.8659	1022.0498	1071.4468	1127.0244	1158.3347	1201.6365	1289.6663	1307.28	1356.4364	1356.9338	1487.1601	1554.9266	1627.9488	1651.6702	1654.5388	1675.7051	3154.194	3154.6158	3170.6483	3174.0906	3543.4162	3543.6864	3636.8432	3636.9848
NC1=CC=C(N)C=C1	Nc1ccc(N)cc1	
InChI=1S/C6H8N2/c7-5-1-2-6(8)4-3-5/h1-4H,7-8H2	InChI=1S/C6H8N2/c7-5-1-2-6(8)4-3-5/h1-4H,7-8H2
