21
gdb 3099	3.46991	1.89212	1.55217	0.0542	74.57	-0.2567	0.0813	0.338	931.1995	0.193921	-274.98231	-274.973411	-274.972467	-275.015306	32.396	
C	-2.0394935308	 0.4772382048	 1.8031987283	-0.373101
C	-1.1805748636	-0.4892980002	 0.9776040811	-0.191407
C	 0.0996699585	-0.8793185952	 1.6915932937	-0.006788
C	 0.1918304991	-2.0443499683	 2.6619076915	-0.015448
C	-0.9822659918	-2.9401915366	 2.9992290565	-0.405699
C	 0.918102078	-2.1040766946	 1.3314961177	-0.038717
C	 0.5314987957	-3.0579822889	 0.2197226964	-0.403092
H	-1.4843728139	 1.3913010041	 2.0417192212	 0.112185
H	-2.9445851993	 0.7693169102	 1.2610032529	 0.107089
H	-2.3454550929	 0.0218598738	 2.7507167565	 0.118115
H	-1.7745229839	-1.3734665659	 0.7261836947	 0.092687
H	-0.9264753297	-0.0187568555	 0.0182033248	 0.093944
H	 0.6895434109	-0.0091844564	 1.9757812565	 0.072164
H	 0.8366535942	-1.8670018946	 3.5199075395	 0.075638
H	-1.6452258954	-3.1138792258	 2.1484784918	 0.115112
H	-0.6364756062	-3.920892699	 3.3457606903	 0.114067
H	-1.5890743625	-2.5048394725	 3.8013249776	 0.11501
H	 1.9945850194	-1.9618930117	 1.3990656875	 0.075856
H	-0.5479042295	-3.2062089673	 0.1412246867	 0.114274
H	 0.8797790256	-2.6865460196	-0.7507473712	 0.114592
H	 0.9854209681	-4.0431899009	 0.3762438659	 0.113519
75.875	136.5621	154.4821	180.0224	202.7831	238.27	288.3845	299.0104	457.8296	507.4246	541.3036	733.0191	763.3817	793.291	826.3581	936.5012	948.3442	965.7494	1039.4551	1044.8321	1052.2288	1086.3338	1129.1753	1142.2314	1162.5358	1191.283	1198.3548	1271.9729	1294.6662	1337.3223	1379.2952	1401.0056	1410.1148	1418.8657	1423.923	1455.7984	1481.7967	1493.1124	1496.7046	1498.4326	1503.4236	1506.3273	1516.9623	3017.9732	3028.8591	3030.6368	3032.4416	3067.8266	3081.1784	3083.1192	3097.4505	3103.7986	3105.5219	3108.8482	3118.8123	3123.1028	3137.2276
CCC1C(C)C1C	CC[C@H]1[C@@H](C)[C@H]1C	
InChI=1S/C7H14/c1-4-7-5(2)6(7)3/h5-7H,4H2,1-3H3	InChI=1S/C7H14/c1-4-7-5(2)6(7)3/h5-7H,4H2,1-3H3/t5-,6+,7-
