9
gdb 4219	6.38896	2.76732	1.93095	1.3461	45.92	-0.2584	-0.0808	0.1775	567.2133	0.056441	-379.52703	-379.522219	-379.521275	-379.555739	17.226	
F	 0.0059206136	 0.0442067662	 0.0031102592	-0.043433
C	-0.001101855	 1.3625172834	 0.0105468839	 0.338985
C	-1.2211702699	 2.048061487	 0.0303948734	-0.102733
N	-1.2378480107	 3.3721268742	 0.037735261	-0.143015
N	-0.0773975891	 4.0342435956	 0.0257204994	-0.186708
C	 1.0422105378	 3.3202301819	 0.0066598397	 0.116448
N	 1.146422367	 1.9816920508	-0.0016610963	-0.282498
H	-2.1736541169	 1.5297093022	 0.0402498623	 0.150837
H	 1.9685268531	 3.8864508387	-0.0023366626	 0.152116
200.8368	391.4373	424.4128	563.7911	574.0412	679.4435	811.2391	899.1251	929.8825	996.496	1022.8203	1070.5851	1181.6939	1276.5111	1325.3288	1369.2423	1478.0181	1581.9864	1605.026	3192.5773	3200.1143
FC1=CN=NC=N1	Fc1cnncn1	
InChI=1S/C3H2FN3/c4-3-1-6-7-2-5-3/h1-2H	InChI=1S/C3H2FN3/c4-3-1-6-7-2-5-3/h1-2H
