19
gdb 2409	4.60166	2.25013	1.87851	0.141	72.04	-0.2861	0.106	0.3921	779.3598	0.172606	-273.735711	-273.72876	-273.727816	-273.766102	27.355	
C	-0.1142700999	 1.6461709895	 0.1643976222	-0.441761
C	 0.0131252001	 0.1291398985	 0.1185485381	 0.071816
C	 1.1365838866	-0.5852186452	-0.7053347504	-0.066138
C	 2.1443093278	-0.1617878761	 0.4031801864	-0.229571
C	 0.8773269034	-0.6632339752	 1.1561119128	-0.066121
C	 0.8802842349	-1.8683378046	 0.1556079904	 0.073903
C	-0.3253217433	-2.7746096433	-0.0502627629	-0.446726
H	 0.8339174776	 2.1665579362	 0.3178870588	 0.116469
H	-0.5467543481	 2.0192663653	-0.7710686659	 0.114248
H	-0.7891737453	 1.94617205	 0.9742415694	 0.114252
H	-0.9822952428	-0.2933023824	-0.0377853733	 0.058376
H	 1.2906334879	-0.5403150856	-1.7861495185	 0.059235
H	 3.0409534759	-0.7802823746	 0.5021370864	 0.085234
H	 2.3950960921	 0.8956138019	 0.4824301452	 0.089169
H	 0.7301711705	-0.7089721803	 2.2378527584	 0.059231
H	 1.779145625	-2.4882738135	 0.2548219041	 0.058281
H	-1.2716604465	-2.2399559622	-0.1600170968	 0.119104
H	-0.1888628554	-3.3881974206	-0.9480062279	 0.115499
H	-0.4323301205	-3.4608359478	 0.7974995638	 0.115502
165.8127	178.0393	253.7937	262.6819	315.5752	399.2454	550.0157	592.0108	751.0398	759.3018	790.6301	807.3835	854.0873	897.1457	1011.4813	1018.1647	1020.4752	1025.3189	1045.0535	1051.4802	1105.6594	1132.0606	1137.1536	1150.2557	1169.6096	1193.8649	1215.8665	1250.457	1252.1984	1272.655	1401.1028	1411.9406	1422.388	1432.56	1496.5512	1496.977	1498.3845	1504.7379	1533.8454	3026.8947	3031.1049	3034.9882	3059.7453	3071.9197	3078.0947	3084.5517	3086.276	3088.4501	3115.5489	3122.3819	3138.2247
CC1C2CC1C2C	C[C@H]1[C@H]2C[C@@H]1[C@H]2C	
InChI=1S/C7H12/c1-4-6-3-7(4)5(6)2/h4-7H,3H2,1-2H3	InChI=1S/C7H12/c1-4-6-3-7(4)5(6)2/h4-7H,3H2,1-2H3/t4-,5-,6-,7+
