14
gdb 4356	3.81744	1.97575	1.31247	0.958	66.32	-0.2525	-0.0277	0.2248	883.7117	0.109035	-378.801034	-378.794148	-378.793204	-378.832764	25.282	
C	 0.0052243638	 1.464119308	 0.0561633118	-0.458493
C	 0.0100880582	-0.0377264795	 0.0009858538	 0.354562
N	-0.1174170188	-0.6181816454	-1.1932541248	-0.295352
C	-0.1084878816	-1.9598859779	-1.2005695887	 0.01821
C	 0.0228814198	-2.7281722078	-0.0607785806	-0.222288
C	 0.1491389094	-2.008068187	 1.1310721951	 0.434
O	 0.2819297063	-2.6679344687	 2.2918071818	-0.4083
N	 0.1438826275	-0.6828402757	 1.1713761283	-0.375603
H	 0.9367171521	 1.8303347215	 0.4995596496	 0.138993
H	-0.1092237383	 1.8770847145	-0.9458408727	 0.13934
H	-0.8112160004	 1.8175675786	 0.6940291332	 0.13898
H	-0.2123788849	-2.4336109801	-2.1741040092	 0.117812
H	 0.0293915336	-3.8097071139	-0.0733990896	 0.117037
H	 0.3528614933	-1.9899000967	 2.979742932	 0.301102
43.5201	189.5666	220.1825	309.0964	445.4204	466.8023	557.6015	565.4	587.3663	659.308	773.5692	801.1901	855.2727	961.5692	1001.7994	1004.7873	1041.053	1068.4173	1115.1845	1206.3772	1274.0658	1319.4315	1376.2517	1402.4987	1456.9298	1466.0061	1479.7604	1502.0825	1619.5408	1644.1427	3047.3858	3103.8311	3158.4191	3159.3615	3225.9025	3751.7264
CC1=NC=CC(O)=N1	Cc1nccc(O)n1	
InChI=1S/C5H6N2O/c1-4-6-3-2-5(8)7-4/h2-3H,1H3,(H,6,7,8)	InChI=1S/C5H6N2O/c1-4-6-3-2-5(8)7-4/h2-3H,1H3,(H,6,7,8)
