12
gdb 4655	7.05982	1.35081	1.135	2.329	65.93	-0.2109	-0.0078	0.2031	966.8793	0.084303	-377.523681	-377.516735	-377.515791	-377.554563	26.203	
N	 0.0462208597	 1.338629589	 0.1458164747	-0.599212
C	-0.0491342936	-0.0236635152	 0.0476339319	 0.460108
N	-1.1196981578	-0.7516671604	 0.0358734944	-0.381888
C	-0.6251718866	-2.0662163971	 0.0067798563	 0.128215
C	 0.7316945497	-2.0301726773	-0.0040414279	-0.134041
O	 1.1196217968	-0.7105507721	 0.0235208971	-0.173144
C	-1.4636711343	-3.2041836041	-0.011218449	 0.220113
C	-2.1732975627	-4.1759779589	-0.0273824469	-0.404981
H	 0.8705038592	 1.7418259547	-0.2743117028	 0.267176
H	-0.8103472249	 1.8144643937	-0.0948783928	 0.275177
H	 1.5133156948	-2.7673639718	-0.0323789976	 0.152237
H	-2.8021603903	-5.0312508606	-0.0406676175	 0.190241
143.748	151.2993	289.2987	312.0296	395.5587	464.8041	547.7429	558.4114	572.5379	588.9604	664.6519	667.9506	738.4163	753.4262	776.3472	959.232	1001.5396	1120.9694	1138.1015	1233.1639	1276.4985	1429.4209	1595.2895	1607.6713	1693.0533	2240.9403	3309.6195	3504.8121	3580.01	3689.3382
NC1=NC(=CO1)C#C	Nc1nc(co1)C#C	
InChI=1S/C5H4N2O/c1-2-4-3-8-5(6)7-4/h1,3H,(H2,6,7)	InChI=1S/C5H4N2O/c1-2-4-3-8-5(6)7-4/h1,3H,(H2,6,7)
