11
gdb 3962	7.64579	1.97678	1.61472	4.3064	47.81	-0.2888	-0.044	0.2448	700.1319	0.078554	-376.521083	-376.514924	-376.51398	-376.551913	20.953	
O	 0.0129290482	 1.3766400706	 0.3560283269	-0.415522
C	 0.0130956571	 0.015370589	-0.0391812109	-0.181881
C	-1.3995374359	-0.4695132919	 0.0437558715	 0.340411
N	-1.7155635361	-1.7098957812	 0.2978159475	-0.155277
O	-3.0812636592	-1.7623828063	 0.2584200427	-0.146357
N	-3.618672608	-0.5360855256	-0.0116131219	-0.062591
C	-2.6025944435	 0.2686543293	-0.1474937695	-0.088807
H	 0.8970073405	 1.7295725044	 0.219513102	 0.299674
H	 0.3732733987	-0.1014045302	-1.0735323648	 0.121092
H	 0.6474242116	-0.6112492381	 0.6024172375	 0.129075
H	-2.7332828234	 1.31728616	-0.3585590411	 0.160182
46.2838	188.3938	234.9906	300.9348	457.1363	647.7727	664.3929	716.9159	892.1495	902.8935	933.4611	1019.3176	1031.4435	1060.5252	1095.3161	1185.0122	1241.6123	1244.0199	1421.6553	1444.6578	1485.9136	1512.509	1621.3929	2979.7554	3028.9495	3287.0378	3836.8105
OCC1=NON=C1	OCc1nonc1	
InChI=1S/C3H4N2O2/c6-2-3-1-4-7-5-3/h1,6H,2H2	InChI=1S/C3H4N2O2/c6-2-3-1-4-7-5-3/h1,6H,2H2
