20
gdb 1997	5.40145	1.43993	1.3227	1.0589	72.03	-0.2301	0.0884	0.3185	1005.0328	0.182393	-291.017433	-291.009082	-291.008138	-291.050031	30.6	
C	-0.2291519243	 1.4628321184	-0.0356676629	-0.375541
C	 0.071865414	-0.0384487844	 0.0500722379	 0.039
C	 0.739019733	-0.5509901101	-1.2323310816	-0.389887
C	 0.9404695568	-0.3685159204	 1.2720741731	-0.127356
N	 0.2711504611	-0.0217048224	 2.522146307	-0.059242
C	-0.5458445955	-1.067651362	 3.128192616	-0.219034
C	 0.7629691845	-0.681175482	 3.7243089256	-0.220595
H	 0.6915039308	 2.0331363348	-0.2112865765	 0.105437
H	-0.9159129843	 1.6799747934	-0.8604652974	 0.103016
H	-0.673671859	 1.8236419288	 0.8946310679	 0.130731
H	-0.8811632955	-0.5721706698	 0.1759449804	 0.072867
H	 1.709673913	-0.0655806954	-1.3908627569	 0.111651
H	 0.9097880035	-1.6323858045	-1.1951958917	 0.107369
H	 0.118713157	-0.3394881436	-2.1091667904	 0.111429
H	 1.2212526898	-1.4385920321	 1.2466062794	 0.069924
H	 1.8747144038	 0.2072070377	 1.2233261606	 0.096498
H	-1.4785357819	-0.7431065665	 3.5806674002	 0.115181
H	-0.5948258553	-2.0325281506	 2.624448452	 0.106804
H	 1.5835531647	-1.3897520647	 3.617998162	 0.106602
H	 0.8052242939	-0.0678759847	 4.6201321956	 0.115147
75.4605	101.5119	169.5397	219.6078	242.9343	301.6434	363.7252	385.2298	441.5259	471.1068	771.3063	830.0211	837.0786	903.6662	927.2837	932.2515	958.4643	972.9798	1030.3541	1038.8783	1112.8628	1117.6246	1134.496	1159.6289	1185.5185	1197.329	1206.8716	1289.3329	1322.0373	1328.575	1370.8248	1393.9945	1400.1155	1422.7285	1482.7414	1489.0828	1490.4238	1497.532	1503.0432	1512.5832	1521.2108	2919.143	3000.5593	3023.1267	3027.0769	3034.2271	3086.0731	3088.5437	3091.6114	3093.3224	3099.5135	3125.7057	3172.5226	3186.8472
CC(C)CN1CC1	CC(C)CN1CC1	
InChI=1S/C6H13N/c1-6(2)5-7-3-4-7/h6H,3-5H2,1-2H3	InChI=1S/C6H13N/c1-6(2)5-7-3-4-7/h6H,3-5H2,1-2H3
