17
gdb 4964	3.22339	2.18358	1.323	2.757	77.28	-0.2452	-0.015	0.2302	923.656	0.143862	-326.800565	-326.793142	-326.792198	-326.831991	27.97	
C	 0.0149400642	 1.5246440739	-0.0183067589	-0.496496
C	 0.0102501589	 0.0186701456	-0.0063224932	 0.231366
C	-0.0092333786	-0.7103773691	-1.1941008497	-0.185668
C	-0.0131895439	-2.1007969806	-1.1531021386	-0.000711
N	 0.0009189891	-2.8007189903	-0.0178646209	-0.279471
C	 0.0195842665	-2.0975243545	 1.1165701797	-0.053633
C	 0.0252746138	-0.7041093855	 1.1990851173	 0.207762
C	 0.0467630664	-0.0191541152	 2.5402620884	-0.503011
H	 0.9024911881	 1.9260448573	 0.4846890983	 0.135614
H	 0.0015703512	 1.9121244911	-1.0397422456	 0.126343
H	-0.8552526966	 1.9317037649	 0.5098452105	 0.135615
H	-0.0213233805	-0.1964336396	-2.1503642557	 0.0909
H	-0.0283338083	-2.6764460456	-2.0758551062	 0.104002
H	 0.0309215104	-2.6808465884	 2.0363702291	 0.097454
H	 0.9300837887	 0.6201500934	 2.6560560464	 0.130934
H	-0.8291620587	 0.6251658353	 2.681661076	 0.130944
H	 0.0564818591	-0.7511303528	 3.3520040932	 0.128057
137.2978	167.6808	179.8556	259.2278	288.4343	403.6562	438.7219	509.6311	545.5726	608.4245	760.0497	764.9529	846.3701	849.3794	955.4225	988.0165	1003.5881	1021.4566	1047.836	1077.2836	1093.6291	1190.2928	1224.8673	1264.9521	1294.8622	1334.6459	1412.0599	1422.9936	1439.1558	1477.8687	1487.6803	1492.9081	1493.3412	1524.7211	1602.4592	1635.3385	3024.9669	3028.9462	3073.3852	3079.2866	3113.1821	3119.625	3134.961	3150.1864	3178.7668
CC1=CC=NC=C1C	Cc1ccncc1C	
InChI=1S/C7H9N/c1-6-3-4-8-5-7(6)2/h3-5H,1-2H3	InChI=1S/C7H9N/c1-6-3-4-8-5-7(6)2/h3-5H,1-2H3
