16
gdb 4473	3.62868	1.68915	1.16628	1.9917	69.3	-0.1652	0.0553	0.2205	998.4169	0.130261	-379.952369	-379.9434	-379.942456	-379.986073	31.713	
C	 0.0008387495	 1.5266241308	 0.1018443975	-0.51181
C	 0.0305254064	 0.0413558336	-0.0083057786	 0.215023
C	 0.0247155746	-0.7765253394	-1.1133329281	 0.270192
O	-0.0162553311	-0.3035653999	-2.3993850142	-0.458489
C	 0.0425933651	-2.1372837294	-0.685138676	-0.358536
C	 0.068616619	-2.1152753984	 0.6944983254	 0.289962
N	 0.1514248539	-3.1328320022	 1.6703449457	-0.610082
N	 0.0558345169	-0.8073497107	 1.0919503966	-0.321651
H	 0.862781466	 1.9267696913	 0.6526271754	 0.115634
H	 0.0220659321	 1.9584472688	-0.9013895305	 0.147735
H	-0.9045921152	 1.8958847741	 0.6021734037	 0.117953
H	 0.0287760765	-1.0537226618	-2.9976965079	 0.292224
H	 0.0086862511	-3.0187945402	-1.3086919615	 0.073742
H	 0.5315332707	-3.9809204475	 1.2678056452	 0.243752
H	-0.7576119055	-3.3644565789	 2.0623454038	 0.241793
H	 0.1875178698	-0.5195398001	 2.0460930933	 0.252558
60.7773	100.8185	138.9715	181.3338	236.2137	243.3913	304.2147	325.7328	440.5064	507.3629	601.3267	637.3381	645.947	672.3192	723.828	806.0055	831.7529	993.5327	1037.5159	1063.4916	1105.0207	1164.2423	1195.9718	1238.3459	1294.5242	1346.9304	1415.7093	1473.7379	1483.0501	1492.6043	1504.4006	1571.8341	1650.2779	1688.3455	3002.7413	3040.2695	3123.552	3232.0765	3481.6579	3588.8447	3678.1281	3853.4904
CC1=C(O)C=C(N)N1	Cc1c(O)cc(N)[nH]1	
InChI=1S/C5H8N2O/c1-3-4(8)2-5(6)7-3/h2,7-8H,6H2,1H3	InChI=1S/C5H8N2O/c1-3-4(8)2-5(6)7-3/h2,7-8H,6H2,1H3
