14
gdb 3233	5.53508	2.68277	2.34024	3.3066	56.68	-0.2193	0.0611	0.2803	613.7265	0.112613	-324.473847	-324.467877	-324.466933	-324.503185	23.424	
C	-0.0875403415	 1.5251224647	 0.0575468119	-0.507274
C	 0.1295241127	 0.0502044683	 0.0158621428	 0.440469
O	-0.7973249764	-0.822853027	 0.663821098	-0.255244
C	 0.5901747525	-0.9432294942	 0.989095658	-0.054174
C	 1.3124249058	-1.7509901633	-0.148202974	-0.090633
N	 0.2907520344	-2.1360855923	-1.1509356269	-0.309564
C	 0.8427939453	-0.7606758254	-1.1407273583	-0.146902
H	 0.8284281434	 2.0603637059	-0.2146215055	 0.124335
H	-0.8726288039	 1.8220259039	-0.6472893478	 0.13474
H	-0.3912724058	 1.8368303215	 1.0603382082	 0.13641
H	 0.8815515707	-0.8628567881	 2.0298382358	 0.104354
H	 2.2634328712	-2.2593692593	-0.0641406326	 0.097668
H	 0.7889781421	-2.6382723733	-1.8873235944	 0.230446
H	 1.3509655494	-0.3335786112	-1.9955692951	 0.09537
195.8045	229.5338	284.7504	421.1206	460.1049	579.3271	668.0894	752.3275	775.4143	802.3585	823.7649	868.0691	886.9094	917.932	975.3125	993.0345	1037.8198	1082.8184	1106.4137	1114.5234	1173.3595	1209.1457	1286.9031	1292.4915	1342.1822	1405.2757	1467.082	1485.3899	1496.8164	3031.8896	3093.1006	3120.957	3184.6858	3195.8594	3211.2575	3459.4507
CC12OC1C1NC21	C[C@]12O[C@H]1[C@H]1N[C@@H]21	
InChI=1S/C5H7NO/c1-5-3-2(6-3)4(5)7-5/h2-4,6H,1H3	InChI=1S/C5H7NO/c1-5-3-2(6-3)4(5)7-5/h2-4,6H,1H3/t2-,3+,4-,5+/m0/s1
