16
gdb 3476	4.48841	2.98136	2.72533	1.6226	63.98	-0.2202	0.0946	0.3148	610.194	0.138282	-288.567911	-288.562018	-288.561073	-288.597172	23.36	
C	-0.0416397197	 1.5308444326	-0.0160335904	-0.524626
C	-0.0306412248	 0.043336925	-0.0295121011	 0.385707
C	 0.0058479732	-1.0242725439	-1.085843944	-0.130563
C	 1.2594418778	-1.5845224976	-0.4422059762	-0.173878
N	 0.890144662	-0.8661297921	 0.8414236813	-0.20369
C	-0.3663151397	-1.6118823855	 1.2480384375	-0.173878
C	-1.0673443195	-1.0423287855	 0.0299193891	-0.130563
H	 0.9349040859	 1.9390191101	-0.2990035059	 0.128673
H	-0.7853514775	 1.9102179738	-0.7249137148	 0.124389
H	-0.2924278521	 1.9183547375	 0.9775743157	 0.128679
H	-0.2731777508	-0.9434817868	-2.1296962102	 0.085533
H	 1.3845267105	-2.6685779338	-0.3361466382	 0.093888
H	 2.176092153	-1.1494890873	-0.8496413535	 0.105454
H	-0.2379384154	-2.6958829076	 1.3506716767	 0.093888
H	-0.7446619863	-1.1986458946	 2.1869710078	 0.105454
H	-2.1224576067	-0.9745961442	-0.2070586838	 0.085533
203.1048	211.479	277.0821	464.7205	465.5566	613.6837	718.9269	766.1634	813.6092	853.4072	870.9947	908.2521	917.5643	964.6774	987.5113	1021.8131	1037.2116	1071.7997	1096.3001	1137.3077	1150.4065	1157.6855	1186.9888	1234.2628	1257.6602	1301.3589	1302.6857	1405.0214	1468.2571	1476.3455	1497.0268	1502.6109	1524.656	3025.8406	3026.3763	3036.6169	3088.3815	3092.3187	3095.5463	3099.3943	3179.2909	3189.0357
CC12C3CN1CC23	C[C@@]12[C@H]3CN1C[C@@H]23	
InChI=1S/C6H9N/c1-6-4-2-7(6)3-5(4)6/h4-5H,2-3H2,1H3	InChI=1S/C6H9N/c1-6-4-2-7(6)3-5(4)6/h4-5H,2-3H2,1H3/t4-,5+,6-
