12
gdb 2826	4.41642	2.46899	1.84811	4.5415	53.31	-0.2582	-0.0552	0.203	668.2479	0.088768	-360.507527	-360.500845	-360.499901	-360.538498	22.674	
O	 0.2399796972	 0.1593404926	 0.8632390048	-0.246754
C	 0.1937737196	 1.0976791896	 0.1079676801	 0.148637
C	 1.2793671228	 2.1162038116	-0.0329318228	-0.115287
C	 1.6732721544	 2.8701142206	 1.2327601334	-0.22207
N	 2.5519444159	 1.9212996282	 0.6235962193	-0.062211
C	 2.9931858338	 0.7506027229	 1.2511295925	 0.162812
O	 3.3685704542	 0.7107570127	 2.3924080008	-0.281064
H	-0.6895922049	 1.2804160241	-0.5408993853	 0.098755
H	 1.3013847287	 2.6503433404	-0.9804912399	 0.119578
H	 1.9453588374	 3.9180205715	 1.1471777791	 0.140675
H	 1.184692657	 2.5718659537	 2.1569567006	 0.157994
H	 3.054607894	-0.095090638	 0.5459866574	 0.098934
100.3963	119.6652	214.4608	265.0278	298.1644	398.9898	582.8436	768.8701	781.2056	875.4035	941.9452	978.2742	1029.673	1059.1281	1073.3133	1097.2305	1128.4055	1159.9371	1345.483	1410.98	1415.9372	1418.393	1502.4907	1805.5387	1826.3743	2906.2125	2997.7783	3113.8143	3137.9753	3210.8499
O=CC1CN1C=O	O=C[C@H]1CN1C=O	
InChI=1S/C4H5NO2/c6-2-4-1-5(4)3-7/h2-4H,1H2	InChI=1S/C4H5NO2/c6-2-4-1-5(4)3-7/h2-4H,1H2/t4-,5?/m1/s1
