19
gdb 1093	4.34045	1.43807	1.39965	0.1324	63.64	-0.2573	0.0644	0.3217	969.783	0.168637	-348.056024	-348.046794	-348.04585	-348.0892	33.548	
C	-0.0197603864	 1.5244663421	-0.0468092514	-0.414185
C	 0.0167800346	-0.008866579	 0.0213987286	 0.336566
C	 0.6487117062	-0.4656882887	 1.340002435	-0.390783
O	-1.3247901113	-0.5192324141	 0.0581577047	-0.457752
C	 0.7612425931	-0.5650642987	-1.2099379295	-0.18557
C	 0.8092488944	-2.0857791313	-1.3027619545	-0.085739
O	 1.3330159745	-2.4138743717	-2.5846514552	-0.42557
H	 0.9878084782	 1.9509493825	-0.008062522	 0.115174
H	-0.4856497293	 1.8613251919	-0.9806520697	 0.102623
H	-0.5998403173	 1.9248489991	 0.7895172523	 0.11945
H	 0.1230619288	-0.0107490396	 2.1842722552	 0.118755
H	 0.5814723863	-1.550638227	 1.4509889411	 0.123206
H	 1.7020178479	-0.1742430143	 1.3880238758	 0.11151
H	-1.7809293439	-0.1980355203	-0.7274826133	 0.274726
H	 0.2640786376	-0.1961442884	-2.1174439888	 0.091878
H	 1.7823112406	-0.1666894001	-1.2373838436	 0.100317
H	 1.4431863645	-2.5008137029	-0.5046618219	 0.08432
H	-0.2039126503	-2.4885637088	-1.1641548696	 0.097264
H	 1.3605667719	-3.3722491709	-2.6571874431	 0.283812
82.3932	108.1835	183.9046	216.4997	248.1414	270.1505	311.6605	329.4185	346.7248	357.3657	417.1453	466.7733	543.3517	779.182	797.6261	911.2029	932.2173	947.877	992.3647	1034.6613	1064.7549	1067.5276	1135.4757	1196.6688	1225.6593	1245.1904	1256.5687	1311.7984	1350.246	1375.4362	1402.4701	1419.3091	1458.6457	1473.4136	1484.7674	1491.6895	1497.4372	1510.5666	1534.7035	2982.262	3017.3114	3021.0062	3027.3512	3046.7239	3067.717	3093.3626	3112.7302	3119.8922	3126.2073	3799.6723	3829.5314
CC(C)(O)CCO	CC(C)(O)CCO	
InChI=1S/C5H12O2/c1-5(2,7)3-4-6/h6-7H,3-4H2,1-2H3	InChI=1S/C5H12O2/c1-5(2,7)3-4-6/h6-7H,3-4H2,1-2H3
