17
gdb 2797	4.34225	1.96867	1.51587	2.1842	60.17	-0.2405	0.0702	0.3107	831.6037	0.147662	-346.829154	-346.821326	-346.820382	-346.861419	27.722	
C	-0.343759625	 1.5202103414	-0.0648027597	-0.406341
C	 0.1560703214	 0.0888955936	-0.0242548486	 0.141624
O	 1.445621937	-0.0711189186	-0.6624581792	-0.294161
C	 1.9286964983	-0.8863242961	 0.4273179951	-0.073284
C	 0.693589435	-0.5502075477	 1.2859179953	-0.035347
C	 0.9706701355	 0.3738946377	 2.4571855587	-0.095428
O	 1.6551803753	-0.3974332304	 3.435300302	-0.424145
H	 0.3575148947	 2.2100934264	 0.4117663866	 0.120138
H	-0.4674244071	 1.8336754558	-1.1063108404	 0.128988
H	-1.3169843179	 1.60531423	 0.4307056668	 0.115685
H	-0.5860281657	-0.5654542295	-0.5070810669	 0.06992
H	 2.0175834031	-1.9422304169	 0.1405996928	 0.096133
H	 2.8944911486	-0.5380623443	 0.8102773951	 0.106499
H	 0.126213288	-1.4122558529	 1.644210656	 0.08177
H	 1.5833423906	 1.2276298997	 2.1288287281	 0.093087
H	 0.0257417025	 0.7778941425	 2.8548662138	 0.086939
H	 1.9026994958	 0.1844585694	 4.1597132447	 0.287922
70.0021	107.477	182.9919	221.5398	262.8099	289.6105	372.4378	444.4496	510.1682	740.8347	844.0309	877.1997	893.639	943.0287	997.6207	1016.3322	1070.1756	1093.2092	1107.6898	1150.2964	1161.9296	1175.0352	1222.4161	1261.3668	1279.3235	1296.4273	1351.421	1373.7724	1391.1967	1411.2607	1461.4669	1482.5172	1500.026	1519.5245	1530.9483	2967.1053	2976.8317	2999.5169	3012.9036	3038.4113	3062.6649	3086.7064	3105.5555	3121.8334	3830.3433
CC1OCC1CO	C[C@H]1OC[C@H]1CO	
InChI=1S/C5H10O2/c1-4-5(2-6)3-7-4/h4-6H,2-3H2,1H3	InChI=1S/C5H10O2/c1-4-5(2-6)3-7-4/h4-6H,2-3H2,1H3/t4-,5-/m1/s1
