16
gdb 2185	3.86842	2.49421	1.67658	3.7929	62.62	-0.2392	0.0405	0.2797	768.9361	0.136329	-325.808754	-325.801157	-325.800213	-325.840453	26.818	
C	-0.0527484258	 1.6089194802	 0.021143557	-0.40221
C	 0.0252642911	 0.0890625635	 0.0017508828	 0.059848
C	 0.7219718857	-0.5815955769	-1.2210599697	-0.398406
C	 1.7318253698	-1.1424614535	-0.1945362533	 0.41165
O	 2.6990284395	-1.8595363307	-0.2152036653	-0.376307
N	 1.0862055266	-0.501271175	 0.8338758872	-0.068376
C	 1.3020443267	-0.5333220487	 2.2562602473	-0.348781
H	 0.9181300895	 2.0514583042	-0.2242108077	 0.123997
H	-0.7887468999	 1.9615377306	-0.7085273341	 0.125704
H	-0.3582602538	 1.9792566348	 1.0055421266	 0.12156
H	-0.9591611544	-0.3445414542	 0.2241046216	 0.07955
H	 0.1396083722	-1.3434583351	-1.7422113989	 0.129124
H	 1.1527130405	 0.1116066528	-1.9469094492	 0.127125
H	 2.1958656378	-1.1346425599	 2.4397665097	 0.162468
H	 1.4637007571	 0.470541038	 2.66662594	 0.127994
H	 0.4551542571	-0.99107083	 2.7838475959	 0.125059
100.8275	136.8236	146.6797	224.6607	250.616	311.2541	436.4485	507.6978	561.4944	701.2426	736.1928	832.9095	911.788	943.694	1051.7224	1065.2828	1069.7848	1102.5737	1150.3042	1184.4174	1197.3939	1254.3769	1297.7085	1381.6686	1408.0279	1414.6511	1444.9073	1468.7826	1482.5887	1490.459	1498.2583	1519.1938	1876.7333	3009.3703	3012.5265	3032.8332	3062.9065	3082.3925	3101.7369	3110.8613	3127.7826	3139.9842
CC1CC(=O)N1C	C[C@H]1CC(=O)N1C	
InChI=1S/C5H9NO/c1-4-3-5(7)6(4)2/h4H,3H2,1-2H3	InChI=1S/C5H9NO/c1-4-3-5(7)6(4)2/h4H,3H2,1-2H3/t4-/m0/s1
