19
gdb 2803	4.29391	2.03698	1.58001	0.9868	67.77	-0.2429	0.0837	0.3265	854.3528	0.1711	-310.902628	-310.894652	-310.893708	-310.934674	29.031	
C	 0.2458952537	 1.5597012883	-0.2084526707	-0.237243
O	-0.3444456771	 0.3268709473	-0.5490256585	-0.239237
C	 0.5446052997	-0.5641963608	-1.1665289164	 0.172366
C	 1.6221543359	-1.2862589782	-0.3090996123	-0.255298
C	 1.2803745929	-2.5890666251	-1.0851611242	-0.227162
C	-0.0636431424	-1.9425202558	-1.5414197236	-0.032198
C	-1.269289782	-2.3511444396	-0.6984937212	-0.381078
H	 1.0638244168	 1.4398022873	 0.517937927	 0.10704
H	 0.6482553913	 2.0758816966	-1.0949587681	 0.101885
H	-0.5323020342	 2.1826616171	 0.2394292637	 0.124833
H	 1.0088227003	-0.08586975	-2.0446143629	 0.057927
H	 2.6497000923	-0.9181206115	-0.3536021467	 0.092328
H	 1.3089891021	-1.3404017291	 0.7372450372	 0.108237
H	 1.9641953827	-2.7662491113	-1.9194007679	 0.099016
H	 1.203389631	-3.5086966826	-0.4998627042	 0.097769
H	-0.303717096	-2.0575453781	-2.6026704301	 0.065312
H	-1.0587442503	-2.2769921748	 0.3729453254	 0.115415
H	-2.1302387253	-1.7102349251	-0.9070249487	 0.124317
H	-1.5487186814	-3.3876423745	-0.9159356978	 0.105771
92.0486	124.8936	177.9081	204.7489	228.9322	304.8695	365.9249	437.6352	510.4187	673.8215	765.0773	817.098	883.7581	920.5894	947.3255	959.6028	1011.6139	1047.1573	1087.9267	1134.1912	1164.2837	1175.4932	1184.9975	1215.3134	1230.0318	1255.4188	1261.4081	1283.6649	1302.6258	1365.1293	1389.7151	1412.4333	1478.9219	1481.5928	1487.7676	1494.8814	1498.0102	1501.5877	1509.5667	2960.3115	2972.6164	3018.5649	3036.0834	3050.6078	3058.5772	3065.3856	3102.3959	3103.456	3111.6873	3114.766	3121.511
COC1CCC1C	CO[C@H]1CC[C@H]1C	
InChI=1S/C6H12O/c1-5-3-4-6(5)7-2/h5-6H,3-4H2,1-2H3	InChI=1S/C6H12O/c1-5-3-4-6(5)7-2/h5-6H,3-4H2,1-2H3/t5-,6+/m1/s1
