17
gdb 1681	4.03197	1.97465	1.42103	2.6932	61.24	-0.2414	-0.0121	0.2293	877.2099	0.144777	-346.867624	-346.858741	-346.857796	-346.901532	30.355	
C	 0.0953365588	 1.4855333409	-0.7361832201	-0.236689
O	-0.2042738388	 0.1110489293	-0.8313508642	-0.245754
C	 0.92385086	-0.7353397316	-0.9522484688	 0.03772
C	 1.7098394515	-0.9002110173	 0.3503434466	-0.400663
C	 0.4532964506	-2.0983769741	-1.4939072411	 0.363884
C	-0.9287182302	-2.1681673155	-2.1036777521	-0.468061
O	 1.1951248215	-3.0522779786	-1.4450148081	-0.305071
H	 0.6159354608	 1.7394120569	 0.1975859967	 0.113956
H	 0.7161836056	 1.822372523	-1.581242084	 0.106203
H	-0.8554687406	 2.0235056346	-0.7609591538	 0.13039
H	 1.599710315	-0.3330533501	-1.7305841605	 0.091461
H	 2.2021071761	 0.0308236398	 0.6420599101	 0.11359
H	 1.0379434016	-1.2077576101	 1.1574123022	 0.125525
H	 2.4687144347	-1.6726803403	 0.2140234541	 0.147685
H	-1.0340188838	-1.4238804701	-2.8994777612	 0.140452
H	-1.1012854053	-3.1717157859	-2.4936905076	 0.132724
H	-1.6809436774	-1.9136216208	-1.350941418	 0.152648
35.0952	82.505	162.2638	189.5848	210.034	219.8614	291.0395	370.9403	412.4129	459.1748	528.1895	606.7363	751.7975	875.3724	956.6633	965.706	1063.0096	1092.4604	1118.7249	1159.6832	1183.4154	1223.8728	1225.7316	1329.9552	1359.855	1381.613	1393.4628	1453.6858	1466.1505	1477.8321	1484.2708	1493.7919	1502.421	1512.4655	1812.8429	2929.9363	2979.8211	3034.8861	3048.943	3051.016	3112.057	3114.3605	3121.9455	3145.9854	3157.9714
COC(C)C(C)=O	CO[C@@H](C)C(=O)C	
InChI=1S/C5H10O2/c1-4(6)5(2)7-3/h5H,1-3H3	InChI=1S/C5H10O2/c1-4(6)5(2)7-3/h5H,1-3H3/t5-/m0/s1
