16
gdb 3973	3.93365	1.21168	1.06375	3.033	64.58	-0.2384	-0.0054	0.233	1107.8761	0.128252	-417.059279	-417.049833	-417.048889	-417.095303	32.585	
C	 0.2232600529	 1.5044440543	-0.3602252501	-0.480146
C	-0.09920595	 0.1024516771	 0.0765779609	 0.348419
C	-0.2400917963	-0.1804188868	 1.5513467706	-0.360925
C	 1.1282880611	-0.2248713177	 2.255112446	 0.374773
N	 1.9319433791	-1.2348949571	 1.8149700547	-0.500472
O	 1.4475894266	 0.554848486	 3.1289534323	-0.355263
N	-0.2414932807	-0.9050719668	-0.6998502415	-0.181431
O	-0.0702344619	-0.5660625523	-2.0513110098	-0.394452
H	 0.7766087358	 2.0295830163	 0.4226808876	 0.147337
H	 0.7963191721	 1.5057791903	-1.2880416379	 0.152974
H	-0.7029570101	 2.0635148773	-0.541408185	 0.146426
H	-0.8184158271	 0.6046115942	 2.0431420016	 0.133267
H	-0.745534964	-1.1406100234	 1.6855543623	 0.133925
H	 1.6902144063	-1.7581386634	 0.9895528482	 0.267574
H	 2.8766970224	-1.2771644696	 2.1601266831	 0.261283
H	-0.2135114362	-1.4105815986	-2.4910955932	 0.306713
22.6457	44.2202	71.5727	126.3525	298.9653	315.3392	318.3864	352.8586	399.7865	421.6476	515.0104	535.1759	576.515	629.4142	735.5655	838.3806	866.9717	930.153	991.2596	1030.8931	1059.5866	1111.1145	1179.9116	1260.691	1298.0745	1350.5726	1394.4555	1402.8244	1466.0622	1479.9732	1486.5545	1620.0595	1725.2469	1808.7749	3039.0721	3067.8328	3103.4835	3128.6773	3151.2551	3592.0845	3726.4781	3822.2281
CC(CC(N)=O)=NO	CC(=NO)CC(=O)N	
InChI=1S/C4H8N2O2/c1-3(6-8)2-4(5)7/h8H,2H2,1H3,(H2,5,7)	InChI=1S/C4H8N2O2/c1-3(6-8)2-4(5)7/h8H,2H2,1H3,(H2,5,7)
