13
gdb 458	7.74998	3.42753	2.48701	1.2483	50.7	-0.2399	0.0319	0.2718	530.0606	0.109278	-286.516879	-286.510983	-286.510039	-286.546498	20.206	
C	-0.0674166693	 1.468790084	 0.049623296	-0.467799
C	 0.0273591596	-0.014653569	-0.0596477658	 0.409335
N	-0.1540110055	-0.7090894439	-1.1075851955	-0.302482
C	 0.0473570433	-2.1131986634	-0.7213030746	-0.182505
C	 0.3865348431	-2.0609720814	 0.7917852946	-0.107322
O	 0.3430243984	-0.6522995853	 1.1050645058	-0.252879
H	 0.8863087195	 1.8848050925	 0.3892821265	 0.144218
H	-0.3281485861	 1.8920923126	-0.9195791818	 0.151523
H	-0.824542766	 1.7461648937	 0.7896934894	 0.144116
H	-0.8591913194	-2.692032734	-0.9281642193	 0.115134
H	 0.8542812066	-2.5532938269	-1.3169962846	 0.115133
H	-0.3430216125	-2.5765753102	 1.4229503463	 0.116772
H	 1.3860148583	-2.4359017588	 1.0304359731	 0.116755
89.3138	141.8079	240.3376	346.2852	604.6223	663.6062	760.2716	830.1047	911.687	947.4222	981.1559	1015.6	1064.9583	1083.1492	1124.4202	1216.3443	1246.3232	1251.4149	1337.1677	1381.3195	1416.5299	1475.4612	1476.7464	1503.9974	1528.1779	1746.6287	3038.6823	3051.0407	3053.0215	3065.4113	3099.2735	3108.12	3166.8911
CC1=NCCO1	CC1=NCCO1	
InChI=1S/C4H7NO/c1-4-5-2-3-6-4/h2-3H2,1H3	InChI=1S/C4H7NO/c1-4-5-2-3-6-4/h2-3H2,1H3
