15
gdb 2703	7.44271	1.07708	0.98597	4.8731	58.9	-0.2443	0.0265	0.2708	1123.1488	0.124981	-341.826906	-341.818832	-341.817888	-341.859866	27.325	
O	-0.1246745518	 1.4406804167	-0.0587705578	-0.421055
C	 0.0089630741	 0.0254607226	 0.0046503915	-0.08946
C	-1.3955926182	-0.5545961749	 0.0071999943	-0.113771
N	-2.0678591577	-0.2093435926	-1.2399091684	-0.296235
C	-3.475465541	-0.5766780227	-1.2423849022	-0.259582
C	-4.1255239584	-0.1765997485	-2.4940416681	 0.258477
N	-4.6470037433	 0.1541663596	-3.4699834242	-0.299639
H	 0.7336023889	 1.8217597743	-0.2633158389	 0.295144
H	 0.5579877809	-0.3614758192	-0.8652600562	 0.106124
H	 0.5379009648	-0.2869653725	 0.9173612494	 0.094125
H	-1.3347877219	-1.6467336016	 0.0956663029	 0.106756
H	-1.9304617546	-0.1822688952	 0.9006586279	 0.093018
H	-1.9685197662	 0.7909907007	-1.3835060158	 0.242593
H	-3.5602508511	-1.6670920998	-1.1473002941	 0.152629
H	-4.0579415443	-0.1473841968	-0.4053516402	 0.130878
65.7214	106.8382	124.6801	191.5165	246.9179	297.4096	341.4299	394.2573	498.9334	571.3199	811.9298	879.6782	909.4408	961.7783	998.3258	1067.0641	1103.6692	1138.0294	1158.6486	1203.7513	1261.8666	1277.6333	1311.5796	1356.9953	1409.9371	1457.0565	1488.8779	1494.7536	1507.8548	1513.418	2368.8508	2929.2335	2935.8528	2988.4998	3031.8073	3040.1638	3046.3314	3527.0175	3841.3973
OCCNCC#N	OCCNCC#N	
InChI=1S/C4H8N2O/c5-1-2-6-3-4-7/h6-7H,2-4H2	InChI=1S/C4H8N2O/c5-1-2-6-3-4-7/h6-7H,2-4H2
