16
gdb 2460	6.06599	2.24272	1.87717	1.3652	66.24	-0.2221	0.0216	0.2438	718.2698	0.138302	-288.628801	-288.622544	-288.6216	-288.658547	24.451	
C	 0.0428056733	 1.4793989919	 0.0383139841	-0.487474
C	-0.0257233577	-0.0130643906	-0.0158148402	 0.319395
C	-0.1097401232	-0.7846338478	-1.1061448776	-0.151428
C	-0.0579653234	-2.2310340726	-0.750518569	-0.073946
N	 1.2290728889	-2.6122957316	-0.0918992033	-0.335011
C	 0.0447658136	-2.2876576521	 0.7326432086	-0.04018
C	 0.0328274012	-0.8552844231	 1.2522694881	-0.295309
H	 0.9928993949	 1.8166966918	 0.4721256263	 0.128982
H	-0.0494071237	 1.9236249896	-0.9565267981	 0.122768
H	-0.7520584973	 1.8916598237	 0.67354208	 0.120892
H	-0.1591766242	-0.4210358688	-2.1261782278	 0.086428
H	-0.5809313329	-2.9800239727	-1.3358173495	 0.083639
H	 1.317710053	-3.6273839878	-0.1246348643	 0.222769
H	-0.4173646309	-3.0787780782	 1.3132301575	 0.083663
H	 0.9264034028	-0.6296590034	 1.8473941163	 0.115287
H	-0.8363231344	-0.6657736983	 1.8974379788	 0.099526
162.6314	190.8366	314.2692	360.2894	418.3132	497.7198	619.015	709.7168	796.378	823.6511	848.5264	862.7268	914.2524	946.9314	958.0268	987.033	1020.3759	1060.2846	1091.9697	1129.6393	1160.8465	1180.0568	1197.2538	1261.0768	1283.4815	1337.7758	1372.8591	1408.3642	1414.9102	1463.4877	1478.5404	1487.8395	1703.4572	3011.3174	3016.4473	3052.8093	3060.5768	3109.4966	3160.3383	3170.0958	3196.9096	3467.1035
CC1=CC2NC2C1	CC1=C[C@H]2N[C@H]2C1	
InChI=1S/C6H9N/c1-4-2-5-6(3-4)7-5/h2,5-7H,3H2,1H3	InChI=1S/C6H9N/c1-4-2-5-6(3-4)7-5/h2,5-7H,3H2,1H3/t5-,6+/m1/s1
