17
gdb 4766	6.06009	1.18299	1.0403	0.7733	72.73	-0.1986	0.0358	0.2344	1136.9757	0.143052	-363.901216	-363.892974	-363.89203	-363.934265	30.037	
C	 0.254016725	 1.5524926606	-0.2458192856	-0.498668
C	 0.1078065364	 0.082774639	 0.0119956665	 0.29104
C	-0.5323816982	-0.8319974823	-0.7951900923	-0.178425
N	-0.4329921727	-2.0692875372	-0.2098571489	-0.2841
C	 0.2504376824	-1.9701308406	 0.9779672498	 0.286122
C	 0.5071131869	-3.1807337529	 1.8121781754	-0.179018
O	-0.6586840209	-3.9903280987	 1.9756754804	-0.419594
C	 0.5969054473	-0.646167575	 1.1381738718	-0.339749
H	 1.3060418432	 1.8487402597	-0.3349529874	 0.122811
H	-0.2479226524	 1.8420787716	-1.1739018801	 0.116393
H	-0.1780968886	 2.152816166	 0.5635617632	 0.121491
H	-1.0552363513	-0.6957578102	-1.7291416799	 0.111264
H	-0.8625950303	-2.9180330591	-0.5356730972	 0.262372
H	 1.2385503528	-3.8488221846	 1.3404153415	 0.117312
H	 0.9313695923	-2.8680626788	 2.7769107505	 0.103104
H	-1.337944446	-3.4294588233	 2.3664404267	 0.281898
H	 1.1536469539	-0.2416582142	 1.9714628357	 0.085747
56.5386	103.1274	137.9355	233.7636	272.9916	341.13	367.5719	449.3855	510.9949	610.9804	640.7087	680.4829	729.3807	750.8836	811.8769	969.7138	980.4901	991.6954	1004.9594	1046.0378	1064.3834	1132.2629	1165.541	1200.8123	1269.3158	1321.7887	1356.1827	1416.0905	1416.8729	1420.8964	1464.2558	1483.7393	1501.956	1505.2787	1543.6443	1633.2275	3004.4403	3022.178	3044.8907	3069.1885	3101.2057	3232.5397	3253.6047	3676.9487	3800.795
CC1=CNC(CO)=C1	Cc1c[nH]c(CO)c1	
InChI=1S/C6H9NO/c1-5-2-6(4-8)7-3-5/h2-3,7-8H,4H2,1H3	InChI=1S/C6H9NO/c1-5-2-6(4-8)7-3-5/h2-3,7-8H,4H2,1H3
