11
gdb 2500	4.51369	2.23839	1.49634	5.1121	51.59	-0.2644	-0.0498	0.2146	738.6691	0.077313	-376.604739	-376.597743	-376.596799	-376.636213	23.	
N	-0.0120255824	 1.3052464406	 0.0091140727	-0.451052
C	-0.0351331452	 0.0407427933	 0.0026369809	 0.114731
N	-1.2337074299	-0.6952363401	 0.0101145573	-0.135156
C	-2.4805744646	 0.0010193848	 0.0256461746	 0.173015
O	-3.5518233686	-0.5295055258	 0.0331029423	-0.246428
C	-1.1321637408	-2.1034147409	 0.0016822883	 0.177163
O	-2.0413799067	-2.8784967479	 0.0061207527	-0.250871
H	 0.9453118279	 1.6494718308	 0.0018876225	 0.24657
H	 0.8429643856	-0.613919866	-0.0091189455	 0.120815
H	-2.3060855921	 1.0858362299	 0.0297225293	 0.153534
H	-0.0678450532	-2.4129212086	-0.0100368951	 0.097678
98.8067	103.4516	225.6888	239.6679	278.025	291.3019	515.1279	542.0501	722.0805	825.1366	914.6957	1022.6916	1047.9056	1070.6062	1145.5131	1215.9181	1331.6652	1423.81	1436.7573	1478.8316	1733.6829	1815.197	1890.8163	2928.7583	3055.5634	3061.404	3521.4556
N=CN(C=O)C=O	N=CN(C=O)C=O	
InChI=1S/C3H4N2O2/c4-1-5(2-6)3-7/h1-4H	InChI=1S/C3H4N2O2/c4-1-5(2-6)3-7/h1-4H
