15
gdb 1078	6.90896	1.94575	1.696	4.0161	62.11	-0.2201	0.0337	0.2538	758.3035	0.12739	-304.738393	-304.731835	-304.730891	-304.769404	23.624	
C	 0.0004162312	 1.5522042467	 0.1057327526	-0.37083
C	-0.0226034936	 0.03151687	-0.0638573664	-0.160998
N	-1.3641105692	-0.5292256912	-0.0087543787	 0.027812
C	-2.1478025188	-0.6922291973	 1.1141993002	-0.128893
C	-3.3374017858	-1.2029466676	 0.6650617449	-0.088664
N	-3.3124213533	-1.3576575386	-0.700953969	-0.273858
C	-2.1205610643	-0.9432439138	-1.0667387443	 0.00441
H	 1.0286065617	 1.9221638434	 0.0478531217	 0.123553
H	-0.587897245	 2.0387109207	-0.6773599029	 0.135004
H	-0.4140912616	 1.8459035048	 1.0741970966	 0.131822
H	 0.4066932134	-0.2503286811	-1.0298260062	 0.125618
H	 0.5870118679	-0.4489431894	 0.7088968985	 0.125031
H	-1.7852381115	-0.4415180735	 2.0977663483	 0.121368
H	-4.205486875	-1.4734913369	 1.2470370387	 0.106016
H	-1.7377400562	-0.9217786863	-2.077146784	 0.122608
51.9143	137.2035	217.0418	346.7096	396.2569	637.8699	664.2288	679.9849	727.4341	794.1928	816.084	854.5606	917.1081	961.5079	1049.6629	1097.631	1098.6093	1118.6632	1146.5411	1261.4878	1276.9885	1310.1657	1386.0876	1392.9473	1411.2415	1420.609	1483.253	1490.1711	1505.663	1535.2132	1543.8737	3044.2222	3048.1389	3090.4509	3119.2446	3126.5577	3239.4867	3245.3827	3273.2891
CCN1C=CN=C1	CCn1ccnc1	
InChI=1S/C5H8N2/c1-2-7-4-3-6-5-7/h3-5H,2H2,1H3	InChI=1S/C5H8N2/c1-2-7-4-3-6-5-7/h3-5H,2H2,1H3
