11
gdb 2820	4.63674	1.96134	1.50396	4.6916	52.65	-0.2718	-0.0518	0.22	754.5042	0.077922	-339.419649	-339.413113	-339.412169	-339.450566	22.396	
O	-0.3277657817	 0.3568850823	 0.7486746597	-0.241566
C	 0.2286124622	 0.7842424323	-0.2280658606	 0.180449
C	 1.3647706529	 1.7572296211	-0.1534147226	-0.116977
N	 2.3033357855	 1.7170131657	-1.2813361072	-0.305004
C	 1.4669083391	 2.9054483495	-1.1287594156	-0.183067
C	 0.4714820543	 3.1438413266	-2.1488719074	 0.331716
N	-0.3311727185	 3.3643490902	-2.9504464011	-0.316155
H	-0.0499735541	 0.4865011685	-1.2601060059	 0.1137
H	 1.7306614823	 1.9518837799	 0.8515404898	 0.12588
H	 3.2531741992	 1.9062078136	-0.9733101167	 0.261819
H	 1.9083956289	 3.8156005503	-0.7307174125	 0.149205
86.6855	153.4576	214.6225	315.1146	333.7171	480.5363	563.6183	596.5278	783.2163	869.9276	913.8923	950.4486	994.9078	1041.3999	1117.6594	1187.4076	1205.9938	1224.4807	1360.9639	1407.4163	1446.1148	1833.4135	2364.5667	2930.5788	3146.4509	3158.2447	3522.4078
O=CC1NC1C#N	O=C[C@H]1N[C@H]1C#N	
InChI=1S/C4H4N2O/c5-1-3-4(2-7)6-3/h2-4,6H	InChI=1S/C4H4N2O/c5-1-3-4(2-7)6-3/h2-4,6H/t3-,4+/m0/s1
