17
gdb 1664	4.74331	1.9274	1.41321	3.6703	62.8	-0.2259	0.066	0.2918	880.8701	0.147439	-343.068226	-343.059148	-343.058203	-343.101984	30.213	
C	-0.0534273413	 1.4639741579	-0.0171378009	-0.311617
N	 0.0889606279	 0.0183117496	 0.035851476	-0.365861
C	 0.686226657	-0.6194169481	-1.0393519759	 0.495061
O	 1.2099470376	 0.0081739149	-1.9483516123	-0.423831
N	 0.6837755903	-2.0003328961	-0.9842432765	-0.11819
C	 1.1359009074	-2.7421740856	-2.1460760909	-0.340492
C	 0.1499093038	-2.7567959224	 0.1283030316	-0.349379
H	 0.8959972006	 1.9004684752	-0.3278110035	 0.157941
H	-0.8217562469	 1.7943399298	-0.7289708477	 0.120227
H	-0.3103974134	 1.8325590444	 0.9793842955	 0.113566
H	-0.6401942191	-0.4750399581	 0.5237751997	 0.239181
H	 1.9328022604	-3.4452343978	-1.872570841	 0.115172
H	 0.3160383886	-3.3153974186	-2.6008770852	 0.111746
H	 1.521259774	-2.0281339806	-2.8719982162	 0.170656
H	-0.9367046429	-2.9275383484	 0.0588930903	 0.114841
H	 0.6325791431	-3.7381610556	 0.1573100442	 0.132546
H	 0.3680623929	-2.2578674306	 1.0764150027	 0.138433
75.078	102.0325	113.4412	145.2108	164.0814	196.0929	254.5034	334.1234	394.5413	471.2033	526.0097	621.328	764.2177	843.7812	992.3818	1088.892	1110.5737	1135.5159	1150.8208	1163.8735	1178.1095	1235.4025	1301.1552	1389.0446	1432.9448	1444.2585	1470.1684	1482.798	1498.3983	1500.747	1505.2611	1512.3817	1528.3713	1555.8959	1762.383	2972.5809	3002.3271	3015.0991	3048.6052	3069.8639	3093.8882	3111.4218	3151.7952	3168.2958	3639.2611
CNC(=O)N(C)C	CNC(=O)N(C)C	
InChI=1S/C4H10N2O/c1-5-4(7)6(2)3/h1-3H3,(H,5,7)	InChI=1S/C4H10N2O/c1-5-4(7)6(2)3/h1-3H3,(H,5,7)
