18
gdb 1248	5.07605	1.40889	1.31261	3.6758	65.32	-0.2497	0.0333	0.283	981.46	0.159125	-327.014214	-327.00557	-327.004626	-327.048002	30.198	
C	-0.3025911293	 1.5062460272	 0.0835394938	-0.375206
C	 0.0056448858	 0.0061382982	 0.0206101036	 0.031201
C	 0.8029580204	-0.453917707	 1.247760129	-0.386344
C	-1.2751943202	-0.8378889799	-0.1111838064	-0.150915
N	-2.0331355783	-0.5718369569	-1.3240171656	-0.274344
C	-3.276092595	-0.0194120609	-1.3280479054	 0.154347
O	-3.9005047135	 0.3177832003	-0.3444924945	-0.323857
H	 0.6206021191	 2.0923532705	 0.1342334664	 0.109297
H	-0.8642557465	 1.8374421749	-0.7943287347	 0.116878
H	-0.9021263222	 1.7437204653	 0.9694365808	 0.125504
H	 0.6204779484	-0.1820375706	-0.8728470043	 0.064086
H	 0.2296933367	-0.2925889717	 2.1682489585	 0.120542
H	 1.0516627303	-1.5192079203	 1.1919912122	 0.110264
H	 1.7394684113	 0.104722665	 1.339046786	 0.115248
H	-1.0171733534	-1.9041765506	-0.0739968483	 0.101587
H	-1.9542817436	-0.631401961	 0.7207644239	 0.146613
H	-1.6215617287	-0.8074195228	-2.2133573739	 0.244285
H	-3.6691961812	 0.0908576901	-2.3589160513	 0.070813
31.4343	74.3638	176.1209	220.8748	246.4832	271.4679	307.5215	355.8657	419.8818	476.6137	536.6638	753.3914	820.0046	922.8235	932.5449	940.1435	971.2607	1010.4947	1031.7137	1143.1518	1175.6695	1196.5943	1215.0053	1287.8208	1333.6857	1374.1752	1393.0013	1401.8663	1424.8261	1432.1829	1479.9982	1488.6492	1495.573	1504.2139	1511.426	1536.5574	1806.9761	2928.6083	2986.3055	3020.5992	3028.3199	3035.4818	3092.7623	3100.0749	3104.6144	3107.7664	3112.5236	3629.867
CC(C)CNC=O	CC(C)CNC=O	
InChI=1S/C5H11NO/c1-5(2)3-6-4-7/h4-5H,3H2,1-2H3,(H,6,7)	InChI=1S/C5H11NO/c1-5(2)3-6-4-7/h4-5H,3H2,1-2H3,(H,6,7)
