15
gdb 2513	4.2351	2.01471	1.39069	2.9385	62.88	-0.2272	-0.0657	0.1615	856.4745	0.122752	-341.835557	-341.827042	-341.826098	-341.868534	28.565	
C	-0.0041446541	 1.4186304336	 0.010946715	-0.310266
N	-0.0501482177	-0.0256349505	 0.1160826863	-0.322963
C	 0.6389408902	-0.6679037815	 1.1241733056	 0.293932
C	 0.5921245497	-2.1685093955	 0.9695207941	 0.106228
O	 1.133342511	-2.9559084777	 1.7013499546	-0.240002
N	 1.1912390552	 0.0015621647	 2.0608003607	-0.299761
C	 1.8446144894	-0.6418016935	 3.186661568	-0.306054
H	 1.0171188899	 1.7940267411	-0.1395397754	 0.129175
H	-0.6353677346	 1.7352812216	-0.822112212	 0.118228
H	-0.3777311566	 1.8623727594	 0.9370961134	 0.151414
H	-0.1761953303	-0.5384561562	-0.7416987521	 0.243256
H	-0.0016214551	-2.5198478451	 0.0913589565	 0.073368
H	 2.1374097336	 0.1341269633	 3.8999255098	 0.111106
H	 1.2027341811	-1.3654614476	 3.7027124885	 0.126022
H	 2.7480236383	-1.1860699461	 2.8845724669	 0.126319
63.98	135.9774	145.9715	182.8072	213.2351	241.0621	275.5111	372.4898	413.3031	468.1743	549.6061	715.2298	847.4594	1005.0918	1050.5071	1082.3417	1105.5585	1138.0801	1152.4008	1216.96	1279.2426	1434.0261	1442.2989	1454.4717	1471.0203	1479.6986	1499.9412	1503.2753	1534.8512	1697.7993	1828.5309	2836.9699	3011.8761	3014.9576	3066.5508	3091.5769	3091.8691	3135.2973	3631.9065
CNC(C=O)=NC	CNC(=NC)C=O	
InChI=1S/C4H8N2O/c1-5-4(3-7)6-2/h3H,1-2H3,(H,5,6)	InChI=1S/C4H8N2O/c1-5-4(3-7)6-2/h3H,1-2H3,(H,5,6)
