17
gdb 3340	4.02485	3.12783	2.14501	1.3359	63.15	-0.245	0.0851	0.3301	662.3742	0.15149	-309.710338	-309.704381	-309.703437	-309.739883	23.686	
C	-0.0388357976	 1.5243640178	 0.0218623439	-0.280405
C	 1.2934485479	 0.8099438188	-0.0090224537	-0.02062
C	 2.1659752403	 0.795763883	 1.2461343408	-0.227604
C	 1.6865300365	-0.2512327461	 2.2584749924	-0.067239
O	 0.2738855569	-0.2437914309	 2.3954276506	-0.242716
C	-0.3568739788	-0.7609580204	 1.2364388729	-0.098421
C	-0.0013642519	 0.0213921312	-0.0124751989	-0.028426
H	-0.3221854688	 1.9902743824	 0.9606906471	 0.118954
H	-0.3642904734	 2.0556548745	-0.8657906939	 0.104728
H	 1.8333828844	 0.8546114405	-0.9493057813	 0.08192
H	 3.2060295413	 0.5769074376	 0.9795841375	 0.096591
H	 2.1643706449	 1.7867078626	 1.7147241953	 0.105477
H	 2.0191037222	-1.2563711509	 1.9485987673	 0.084144
H	 2.0958407158	-0.0544065144	 3.253613727	 0.103251
H	-0.0749727489	-1.8201975919	 1.1019951224	 0.08402
H	-1.4337055094	-0.7232336038	 1.4344697134	 0.105517
H	-0.2876566516	-0.46575921	-0.9402938928	 0.08083
135.4166	272.5796	364.3644	393.7096	457.1207	525.1406	690.8405	757.8012	795.7975	832.459	850.4311	895.0349	951.3628	961.7528	1049.4202	1063.031	1074.3297	1089.9761	1109.2749	1131.479	1142.9201	1160.5586	1223.1961	1255.3323	1270.9234	1321.5459	1356.3164	1368.1052	1385.6307	1414.0009	1425.7986	1479.4911	1492.0311	1495.8929	1504.6651	2949.1329	2963.405	3031.074	3061.2752	3069.1949	3084.3589	3126.6219	3143.4362	3155.3642	3214.8623
C1C2CCOCC12	C1[C@H]2CCOC[C@@H]12	
InChI=1S/C6H10O/c1-2-7-4-6-3-5(1)6/h5-6H,1-4H2	InChI=1S/C6H10O/c1-2-7-4-6-3-5(1)6/h5-6H,1-4H2/t5-,6-/m1/s1
