12
gdb 1216	7.59637	1.3251	1.21334	4.1819	52.05	-0.2712	0.0164	0.2877	916.4423	0.090585	-356.743821	-356.736361	-356.735416	-356.77621	25.53	
N	-0.0106418046	 1.3249198233	 0.0487366284	-0.565275
C	 0.008756286	-0.0537087865	-0.0631333291	 0.47334
O	 0.9499130474	-0.6751497014	-0.5174023289	-0.382452
N	-1.1328571621	-0.6670679969	 0.4221969537	-0.339501
C	-1.1945878976	-2.1101433186	 0.4810313896	-0.279154
C	-2.4450127207	-2.6348074318	-0.0838924111	 0.259455
N	-3.4402114632	-3.0444052326	-0.5033658583	-0.301017
H	 0.7259585191	 1.7687499306	-0.4782684768	 0.269202
H	-0.9014997482	 1.7952343087	-0.0060595312	 0.2549
H	-1.7703391637	-0.1419651871	 0.9981641139	 0.255203
H	-0.3393851468	-2.4784913569	-0.0941498306	 0.200563
H	-1.0895024256	-2.4926782108	 1.5049546905	 0.154737
39.5984	89.017	225.7828	279.0624	335.0903	383.0109	426.1168	452.9825	539.7201	597.22	654.9122	772.9422	915.5069	934.0217	1033.3596	1108.4076	1161.8075	1256.0431	1324.9507	1384.3141	1472.8128	1538.2498	1630.0942	1806.4629	2365.5159	3022.7549	3098.3071	3578.5449	3642.7402	3692.8971
NC(=O)NCC#N	NC(=O)NCC#N	
InChI=1S/C3H5N3O/c4-1-2-6-3(5)7/h2H2,(H3,5,6,7)	InChI=1S/C3H5N3O/c4-1-2-6-3(5)7/h2H2,(H3,5,6,7)
