13
gdb 2869	7.96343	1.81594	1.50665	1.2613	65.38	-0.231	-0.0258	0.2052	771.0564	0.101347	-307.287454	-307.280885	-307.279941	-307.318107	23.545	
C	 0.0744997718	-1.1793388646	-0.0432226457	-0.426205
C	-0.018304945	 0.0214312511	-0.0088991937	 0.222344
C	-0.0571282391	 1.4322448792	 0.0337619117	 0.187522
C	-1.1219621218	 2.2410888941	 0.0293995495	-0.217475
C	-0.6785983207	 3.6714110094	 0.0860079049	-0.101922
O	 0.7445178364	 3.625377431	 0.1240201409	-0.26446
C	 1.1995017973	 2.2796132892	 0.0948180413	-0.164151
H	 0.1374948409	-2.2388664529	-0.0739346904	 0.197495
H	-2.1583173026	 1.9336949873	-0.0087928695	 0.113832
H	-1.0136944945	 4.2478591463	-0.7915218583	 0.111775
H	-1.0626959897	 4.1930453924	 0.9776372432	 0.111777
H	 1.7961640613	 2.0587372443	 0.9923808613	 0.114738
H	 1.8451695858	 2.1137482632	-0.7804072352	 0.114732
89.3331	158.8792	159.7907	363.5933	512.429	534.6644	541.9431	605.3709	640.776	772.7829	838.7695	906.9087	924.1361	977.8777	1024.6705	1063.2357	1111.1462	1171.6301	1197.2867	1222.9978	1278.3174	1357.3566	1392.2354	1514.895	1528.6826	1686.2189	2226.637	2968.5159	2982.8994	2988.2965	3010.7974	3230.0211	3503.3
C#CC1=CCOC1	C#CC1=CCOC1	
InChI=1S/C6H6O/c1-2-6-3-4-7-5-6/h1,3H,4-5H2	InChI=1S/C6H6O/c1-2-6-3-4-7-5-6/h1,3H,4-5H2
