11
gdb 2623	15.76239	0.86651	0.84311	2.2464	59.31	-0.2734	-0.0722	0.2012	1229.3295	0.074984	-343.235457	-343.227698	-343.226754	-343.269283	24.12	
O	 0.0741463138	-0.1676375614	 0.0920461269	-0.217967
C	 0.0471767028	 0.9934699771	-0.2039335317	 0.170866
C	 1.2739730163	 1.9108291997	-0.1086201206	-0.422207
C	 1.3244443612	 2.8988384376	-1.1699626273	 0.086977
C	 1.3430499342	 3.7035326021	-2.070301326	 0.027852
C	 1.3449212208	 4.6681524171	-3.1421678274	 0.023723
O	 2.3382183178	 5.2038042564	-3.575417524	-0.22204
H	-0.8787173075	 1.4985986094	-0.5524616432	 0.102659
H	 1.2074954673	 2.4250354935	 0.8628131235	 0.174297
H	 2.1751042861	 1.2900172943	-0.0774690769	 0.172095
H	 0.3393552272	 4.8903030542	-3.5529953733	 0.103746
29.9864	59.9907	97.6288	171.7502	202.0442	385.3311	437.6275	481.7269	607.2342	728.0838	847.0771	1020.1011	1023.325	1037.9094	1156.9992	1205.0834	1284.3949	1412.6729	1422.5764	1429.3268	1769.7641	1846.2943	2331.5207	2910.5098	2923.0025	3006.5717	3085.6996
O=CCC#CC=O	O=CCC#CC=O	
InChI=1S/C5H4O2/c6-4-2-1-3-5-7/h4-5H,2H2	InChI=1S/C5H4O2/c6-4-2-1-3-5-7/h4-5H,2H2
