14
gdb 4753	6.99022	1.3091	1.11035	4.5293	74.5	-0.2142	0.0046	0.2189	1025.3779	0.107701	-341.590678	-341.583205	-341.582261	-341.622634	27.034	
C	 0.0061852983	 1.4654392675	 0.0051091982	-0.339103
N	 0.0014591694	 0.0158376372	 0.0186157257	 0.024035
C	-0.0637643057	-0.8134249249	-1.0666578643	-0.010951
N	-0.0490493481	-2.0797792298	-0.7352154569	-0.318922
C	 0.0304961815	-2.0889738175	 0.64809786	 0.14269
C	 0.0622816803	-0.7943165245	 1.1235749702	-0.215724
C	 0.0702260245	-3.2813967244	 1.410223459	 0.250343
C	 0.1047569499	-4.2874351574	 2.0706225605	-0.431876
H	 0.9247508797	 1.8564700102	 0.4526326324	 0.149877
H	-0.0514552037	 1.8088987484	-1.0292682234	 0.149656
H	-0.8525862264	 1.8632748321	 0.5539267166	 0.149865
H	-0.1202998242	-0.4224973494	-2.0725004907	 0.129207
H	 0.1210170911	-0.3981689421	 2.1235368994	 0.135594
H	 0.1347488134	-5.1794416856	 2.6451780933	 0.185307
77.2831	131.5012	149.4659	236.6279	339.1559	468.2284	538.4447	552.9326	558.8619	635.1143	658.1801	707.134	719.9528	761.841	827.7972	991.1381	1062.1455	1081.9781	1151.602	1177.6475	1246.4642	1291.4335	1386.8817	1416.4821	1458.1524	1483.0895	1514.3678	1531.056	1567.8516	2236.5939	3043.3435	3106.3939	3140.3242	3243.1448	3276.7863	3505.9313
CN1C=NC(=C1)C#C	Cn1cnc(c1)C#C	
InChI=1S/C6H6N2/c1-3-6-4-8(2)5-7-6/h1,4-5H,2H3	InChI=1S/C6H6N2/c1-3-6-4-8(2)5-7-6/h1,4-5H,2H3
