14
gdb 4560	4.05635	1.74443	1.23357	3.2718	60.3	-0.1871	0.0417	0.2288	918.9674	0.107145	-415.908305	-415.900352	-415.899408	-415.940519	28.361	
C	-0.0416051194	 1.4332896444	 0.0309856019	-0.344158
N	-0.031632957	-0.0105317809	 0.0144661162	-0.089443
C	-1.1499617258	-0.8568192471	 0.0419496526	-0.213873
C	-0.6935094567	-2.1230120109	 0.0437292717	 0.335122
O	-1.364124013	-3.2969084669	 0.1383143168	-0.427791
N	 0.7006315846	-2.0727762079	-0.0065821769	-0.420831
C	 1.1424844757	-0.7497473565	 0.0068031692	 0.461806
O	 2.2892173906	-0.3410531672	 0.0110362756	-0.443393
H	 0.9995326253	 1.7597888368	 0.0184526545	 0.171251
H	-0.5566764921	 1.8384692848	-0.8471396442	 0.128888
H	-0.5281095797	 1.8178333221	 0.9343598915	 0.130567
H	-2.1585321006	-0.4834841439	 0.0447312322	 0.137397
H	-1.283012527	-3.786095073	-0.6899096722	 0.306678
H	 1.3234227053	-2.8453584237	 0.1539658311	 0.267779
119.6791	139.512	169.6025	197.0456	280.8681	306.1586	348.6811	415.6875	553.2592	611.366	615.5624	691.6357	698.5331	753.1395	845.347	1013.5467	1060.9322	1159.0741	1162.6165	1181.0058	1256.5764	1266.9488	1325.6041	1412.0324	1425.0991	1467.7179	1495.0465	1515.6526	1726.4748	1824.8409	3025.8696	3079.3595	3146.8626	3292.8305	3686.7935	3760.1223
CN1C=C(O)NC1=O	Cn1cc(O)[nH]c1=O	
InChI=1S/C4H6N2O2/c1-6-2-3(7)5-4(6)8/h2,7H,1H3,(H,5,8)	InChI=1S/C4H6N2O2/c1-6-2-3(7)5-4(6)8/h2,7H,1H3,(H,5,8)
