19
gdb 1149	5.79088	1.95367	1.95357	0.0002	72.52	-0.2901	0.0963	0.3864	782.4631	0.171694	-273.7519	-273.744793	-273.743848	-273.78222	28.159	
C	-0.0144753043	 1.4706284544	 0.0159891559	-0.509215
C	 0.001184624	-0.0343658764	-0.0002123466	 0.344728
C	 0.6218706039	-0.9641019248	-1.08728144	-0.281673
C	 0.0212059388	-1.9300472586	-0.020728665	 0.344728
C	 0.0373287564	-3.4350345998	-0.0371451727	-0.509215
C	 0.6381693314	-0.9871395712	 1.0570070622	-0.281672
C	-1.2267481463	-0.9953791344	-0.0014229091	-0.281639
H	 1.0034191919	 1.8764305088	 0.0110690089	 0.115678
H	-0.5375052688	 1.8700587384	-0.8602183176	 0.11567
H	-0.5215750791	 1.8510412723	 0.909837289	 0.115675
H	 0.1404742976	-0.9585438993	-2.0710352714	 0.079994
H	 1.7131029499	-0.9515840708	-1.1786416802	 0.079971
H	 1.0635653752	-3.8190599383	-0.0502484742	 0.115678
H	-0.46175252	-3.8453593719	 0.8479427087	 0.115674
H	-0.4770252269	-3.8263218291	-0.9221188057	 0.115671
H	 1.7307054297	-0.9764205006	 1.1324057269	 0.079964
H	 0.1718260851	-1.0027818112	 2.0477992924	 0.080019
H	-1.8383741177	-1.0116744472	 0.9068846589	 0.079977
H	-1.8514494708	-0.9922367802	-0.9009865405	 0.079989
205.181	212.1528	221.4217	222.1542	358.4415	360.8567	543.1963	546.5122	583.8896	643.0347	761.629	763.3822	910.764	912.2824	929.222	962.9855	991.4403	1017.8274	1019.0851	1092.4862	1094.8383	1108.3586	1144.3727	1147.1838	1189.2782	1190.6372	1223.3141	1224.6243	1313.6892	1351.8657	1409.6161	1413.0252	1489.6328	1490.0303	1490.5597	1490.9578	1496.5613	1498.7893	1562.1441	3022.6836	3023.1324	3026.3487	3027.375	3039.8286	3087.7508	3089.3858	3089.6109	3090.109	3090.3241	3095.463	3095.6368
CC12CC(C)(C1)C2	C[C@@]12C[C@@](C)(C1)C2	
InChI=1S/C7H12/c1-6-3-7(2,4-6)5-6/h3-5H2,1-2H3	InChI=1S/C7H12/c1-6-3-7(2,4-6)5-6/h3-5H2,1-2H3/t6-,7+
