19
gdb 2148	3.43018	2.83269	1.81503	0.1293	71.81	-0.2345	0.0292	0.2637	772.1444	0.172517	-273.803873	-273.79658	-273.795636	-273.834701	28.207	
C	-0.6838072191	 1.3185718712	-0.0444944682	-0.410919
C	 0.0912685668	 0.0020945554	-0.0444060044	 0.038407
C	 1.2593104017	-0.0607357122	-1.0641000612	-0.258965
C	 2.2133960846	-1.0405645686	-0.4243454848	-0.068451
C	 1.9107494646	-1.2616052392	 0.8537840706	-0.062739
C	 0.7242055025	-0.4410287699	 1.315973527	-0.031894
C	 1.1720848626	 0.7028444965	 2.2446518971	-0.38806
H	-0.041334297	 2.1695276436	 0.2046507182	 0.115545
H	-1.115247638	 1.5118212828	-1.0326420067	 0.109938
H	-1.5088875322	 1.3009090217	 0.6760792269	 0.110333
H	-0.6050920298	-0.7984362279	-0.3239912201	 0.075224
H	 0.920212914	-0.37142416	-2.0593430088	 0.097732
H	 1.7380994451	 0.9211749277	-1.1990038995	 0.098915
H	 3.0542489801	-1.4749903947	-0.9545151254	 0.08693
H	 2.4714583677	-1.8991125382	 1.5300402803	 0.084535
H	 0.0069913377	-1.0559144506	 1.875601091	 0.06707
H	 1.8791735526	 1.3720586947	 1.7432106419	 0.115745
H	 0.3215533011	 1.2998094172	 2.5887328573	 0.111555
H	 1.6747357148	 0.3001503904	 3.1304950189	 0.1091
102.6811	239.5078	251.3521	262.6976	272.1771	336.6295	465.2523	496.3061	629.4479	734.8232	749.7743	769.9529	868.1991	917.6677	948.0104	966.8715	976.8485	1000.6051	1034.207	1081.3709	1093.1233	1124.0446	1135.3685	1172.9655	1200.2817	1285.1313	1309.3589	1324.7847	1360.4759	1367.3614	1374.0625	1403.7824	1412.608	1489.0501	1489.8025	1494.5377	1504.1785	1506.3266	1685.4648	2992.5394	3004.6731	3022.4584	3027.0075	3031.1823	3050.9836	3091.1413	3094.7603	3099.6791	3103.6888	3172.0582	3198.9095
CC1CC=CC1C	C[C@H]1CC=C[C@H]1C	
InChI=1S/C7H12/c1-6-4-3-5-7(6)2/h3-4,6-7H,5H2,1-2H3	InChI=1S/C7H12/c1-6-4-3-5-7(6)2/h3-4,6-7H,5H2,1-2H3/t6-,7+/m1/s1
