17
gdb 2333	6.25042	1.2701	1.16627	0.842	61.09	-0.2601	0.0787	0.3388	1033.5414	0.146736	-346.831382	-346.823115	-346.822171	-346.864342	28.844	
C	 0.1522664957	 1.5301181097	-0.2182206297	-0.41857
C	 0.0151085033	 0.0607601449	 0.0875659201	 0.077955
O	 1.2164101718	-0.7156121159	 0.1611006551	-0.265654
C	 0.4181984822	-0.5868311133	 1.348047018	 0.058779
C	 1.0391769129	 0.1159742545	 2.5290604122	-0.215271
C	 2.133399754	-0.7279913752	 3.1767846925	-0.063217
O	 2.6221670814	-0.0096396859	 4.2990806452	-0.422579
H	 0.9604396026	 1.9922813946	 0.3513377422	 0.13119
H	 0.366314835	 1.6719893954	-1.2827990481	 0.129598
H	-0.7820494501	 2.0558735451	 0.0070692616	 0.122036
H	-0.7827235391	-0.4353149125	-0.4706757912	 0.085176
H	-0.1100549687	-1.508508026	 1.607694137	 0.084235
H	 1.4704613588	 1.0764466085	 2.2359564876	 0.112448
H	 0.262923146	 0.3209618676	 3.2768183885	 0.109045
H	 1.7224250964	-1.7064135176	 3.4767264093	 0.082728
H	 2.9270169312	-0.9170634957	 2.4388283393	 0.105831
H	 3.3498663766	-0.5087072981	 4.6809575505	 0.286269
71.8521	99.3069	129.7682	179.2129	263.4941	267.2661	351.0748	394.4897	503.6872	528.0368	756.889	808.0883	839.5888	924.9078	985.8483	1026.5719	1039.0509	1072.1553	1102.4377	1136.7785	1176.3117	1186.7498	1231.3985	1245.7809	1303.6786	1313.7365	1330.3531	1400.4471	1421.4141	1462.1393	1469.8629	1479.3434	1492.4184	1513.9783	1529.8315	2963.3306	3008.5772	3038.8202	3042.0677	3063.572	3079.7649	3099.1864	3105.5796	3138.9437	3831.762
CC1OC1CCO	C[C@H]1O[C@H]1CCO	
InChI=1S/C5H10O2/c1-4-5(7-4)2-3-6/h4-6H,2-3H2,1H3	InChI=1S/C5H10O2/c1-4-5(7-4)2-3-6/h4-6H,2-3H2,1H3/t4-,5+/m1/s1
