14
gdb 1437	4.60665	1.81412	1.32293	3.1768	60.6	-0.2452	0.032	0.2772	872.5536	0.111633	-324.578146	-324.570004	-324.569059	-324.611188	27.842	
C	-0.3163948389	 1.3039098906	-0.4167898681	-0.335183
N	-0.8625796357	-0.0249596123	-0.2297920604	-0.314044
C	-0.6280805414	-0.7574718818	 0.8854692109	 0.430156
O	 0.0488849349	-0.3890974029	 1.827067893	-0.376592
C	-1.2871415724	-2.1546137923	 0.9211581267	-0.47789
C	-2.0846713912	-2.5374272786	-0.2337352733	 0.287126
C	-2.7384940722	-2.829003642	-1.2005917638	-0.430821
H	 0.3340238762	 1.3457573669	-1.2974640367	 0.127513
H	-1.1123783965	 2.0475086163	-0.5343298957	 0.127507
H	 0.2691367585	 1.5450153062	 0.4711837496	 0.171131
H	-1.4406945148	-0.433558388	-0.9475791876	 0.25558
H	-0.4734805975	-2.8708545249	 1.0815053715	 0.165722
H	-1.8932863391	-2.1818775913	 1.8336231378	 0.165728
H	-3.3204010098	-3.105641346	-2.0449693037	 0.204068
49.7831	85.9586	139.7555	157.4505	284.5655	332.5206	387.0048	489.5785	508.4047	624.6911	631.8766	647.51	673.142	861.4938	947.983	989.2974	1091.3505	1153.8973	1177.8907	1217.5935	1255.8437	1303.0245	1439.0504	1445.0425	1495.6845	1500.2572	1573.7326	1789.1119	2231.8789	3028.686	3047.6952	3080.984	3081.2831	3152.6398	3502.5276	3622.0156
CNC(=O)CC#C	CNC(=O)CC#C	
InChI=1S/C5H7NO/c1-3-4-5(7)6-2/h1H,4H2,2H3,(H,6,7)	InChI=1S/C5H7NO/c1-3-4-5(7)6-2/h1H,4H2,2H3,(H,6,7)
