16
gdb 3450	4.35577	2.79812	2.06187	2.3021	59.15	-0.2359	0.0736	0.3096	662.9162	0.13951	-325.761942	-325.755815	-325.754871	-325.79173	24.159	
O	 0.036017297	 1.3707658105	-0.135044863	-0.442839
C	 0.0301041111	-0.0440065549	-0.0953182514	 0.162109
C	 0.753819804	-0.6364671818	 1.1481237568	-0.246085
C	 0.0221874226	-1.9516057736	 1.4965299962	-0.212542
C	-1.3820266902	-1.7458952479	 0.9532979969	-0.023753
N	-1.9613207323	-0.4285552319	 1.3122849673	-0.35346
C	-1.3663207869	-0.6428670365	-0.0311614166	-0.069948
H	-0.5137513143	 1.6555098619	 0.6058611434	 0.284606
H	 0.5211808628	-0.3642511575	-1.0212267087	 0.084287
H	 1.822412794	-0.7772870059	 0.9712459889	 0.098993
H	 0.6508278543	 0.0793722986	 1.9676442686	 0.111834
H	 0.4759953238	-2.8068099574	 0.981561686	 0.09999
H	 0.0369004082	-2.1694321865	 2.5692535502	 0.104207
H	-2.0548312633	-2.5914402623	 0.849349977	 0.08469
H	-2.973904053	-0.4824686417	 1.2375217467	 0.2321
H	-2.0099888077	-0.6193521232	-0.9041632483	 0.085809
116.951	242.7661	357.6909	402.2562	443.2458	540.4294	612.0876	661.0346	795.5876	827.5534	858.7283	881.5622	917.1849	940.5031	983.2212	1010.9944	1054.299	1080.5324	1095.7737	1126.227	1164.7859	1185.4787	1230.6691	1255.7668	1288.0377	1310.8141	1338.5921	1343.3607	1369.2045	1425.6245	1440.2907	1480.0459	1494.5721	3036.5341	3049.6706	3068.3376	3080.4829	3116.5481	3156.8898	3171.3376	3504.7656	3777.3815
OC1CCC2NC12	O[C@H]1CC[C@H]2N[C@@H]12	
InChI=1S/C5H9NO/c7-4-2-1-3-5(4)6-3/h3-7H,1-2H2	InChI=1S/C5H9NO/c7-4-2-1-3-5(4)6-3/h3-7H,1-2H2/t3-,4+,5-/m1/s1
