19
gdb 2801	4.23114	1.97052	1.50953	1.7323	67.32	-0.2394	0.0856	0.3249	881.8578	0.171129	-310.909551	-310.901438	-310.900493	-310.94258	28.975	
C	 0.168440524	 1.5678242854	 0.0387019957	-0.382652
C	 0.0138894608	 0.043270013	 0.0299354491	-0.186679
C	 0.536985714	-0.5678484342	-1.2595472114	 0.159824
O	 1.9614441005	-0.3550199114	-1.4306688571	-0.294627
C	 2.2032463525	-1.7620305531	-1.6204796194	-0.073365
C	 0.7155944647	-2.1097530696	-1.3920663766	-0.053181
C	 0.3920669994	-3.0058146894	-0.2035153454	-0.407497
H	 1.2177333705	 1.8436798984	-0.0986689303	 0.138373
H	-0.4085987445	 2.0290944683	-0.7705693604	 0.111692
H	-0.1780791158	 1.9963363631	 0.9837781323	 0.108897
H	 0.5520761483	-0.3861679179	 0.8820728439	 0.097501
H	-1.0429948844	-0.2319477861	 0.1455842447	 0.092685
H	-0.0113853255	-0.1340300828	-2.1100584584	 0.064876
H	 2.5965606592	-1.9805122447	-2.6217291628	 0.095652
H	 2.9021212465	-2.1623433764	-0.8734612102	 0.09506
H	 0.2278167488	-2.5028457714	-2.2881539277	 0.076403
H	 0.8988533529	-2.674116534	 0.7079239565	 0.122549
H	-0.6836406458	-3.0327135487	-0.0003575026	 0.118306
H	 0.7150895839	-4.0332485584	-0.4039093198	 0.116184
33.0318	105.9764	169.5955	226.28	236.3548	285.964	365.6402	442.2984	487.4819	731.993	772.3194	830.333	885.1876	917.6423	939.8458	968.0021	1019.1388	1037.2976	1057.2003	1109.328	1132.1667	1158.0783	1175.4695	1195.9095	1267.1622	1277.2976	1301.4335	1331.3407	1363.3215	1383.5977	1405.6932	1410.8945	1416.3081	1473.5251	1496.4371	1497.8452	1501.4607	1509.9518	1529.5008	2975.7877	3001.7422	3022.0663	3032.6118	3035.6058	3038.8063	3066.6962	3068.9688	3095.4502	3102.4598	3108.9655	3119.3578
CCC1OCC1C	CC[C@H]1OC[C@H]1C	
InChI=1S/C6H12O/c1-3-6-5(2)4-7-6/h5-6H,3-4H2,1-2H3	InChI=1S/C6H12O/c1-3-6-5(2)4-7-6/h5-6H,3-4H2,1-2H3/t5-,6-/m1/s1
