14
gdb 812	4.97998	1.98261	1.52483	1.103	57.57	-0.2477	-0.0022	0.2454	788.5191	0.111826	-361.648305	-361.641082	-361.640138	-361.679561	25.694	
C	 0.1085997187	 1.5388136821	-0.0668838613	-0.395256
C	-0.0330848282	 0.0394480194	 0.1170186644	 0.0705
O	 0.7710696811	-0.7334938731	-0.8225326071	-0.296832
C	 1.4857419099	-1.4172392224	 0.2336979439	-0.161749
C	 0.715893182	-0.6193617875	 1.254125079	 0.342484
N	 0.6643044846	-0.4699731071	 2.5058602179	-0.221642
O	 1.5908822729	-1.3078842936	 3.1508605981	-0.391182
H	 1.1560759964	 1.8425060572	 0.0087028561	 0.124988
H	-0.2716560296	 1.8323909861	-1.0499145442	 0.130518
H	-0.466538436	 2.0658394106	 0.700771727	 0.131404
H	-1.0887527907	-0.260552465	 0.0548249237	 0.099564
H	 1.2988637405	-2.4988569913	 0.2434425428	 0.127205
H	 2.5681260604	-1.2410192115	 0.2010080158	 0.12939
H	 1.4479673083	-1.095356834	 4.0795816541	 0.310605
108.8217	154.3815	191.773	232.442	313.2411	363.499	457.4832	496.6087	558.7441	717.4425	830.7159	875.4647	976.3036	977.2036	1007.1692	1057.885	1079.7917	1124.7989	1133.6247	1185.2179	1274.8463	1322.9658	1362.5534	1400.1629	1414.9438	1483.4197	1490.699	1499.408	1815.7086	3004.6463	3016.9675	3041.9176	3055.9281	3117.6273	3125.291	3816.0478
CC1OCC1=NO	C[C@H]1OCC1=NO	
InChI=1S/C4H7NO2/c1-3-4(5-6)2-7-3/h3,6H,2H2,1H3	InChI=1S/C4H7NO2/c1-3-4(5-6)2-7-3/h3,6H,2H2,1H3/t3-/m1/s1
