19
gdb 2220	3.38628	2.72821	2.05233	0.2271	71.45	-0.2394	0.0916	0.331	754.5596	0.171811	-273.76442	-273.757051	-273.756107	-273.795136	28.482	
C	-0.0189907352	 1.5644194139	 0.0401478821	-0.418372
C	 0.0893468914	 0.0543185446	 0.0861641732	-0.036188
C	 1.33038897	-0.7472848395	-0.2260731754	-0.11279
C	 2.5922457142	-0.0588169864	 0.3056474526	-0.222325
C	 1.9708472311	-0.0615657625	 1.7383326188	-0.283529
C	 0.7165402961	-0.7637089262	 1.1872705151	 0.350504
C	-0.0188438994	-1.8517782026	 1.9172895499	-0.494876
H	 0.8789366311	 2.0624192806	 0.414655974	 0.118928
H	-0.180672451	 1.9114765402	-0.9866812048	 0.114007
H	-0.8636986204	 1.9149296076	 0.644074969	 0.113081
H	-0.8011653477	-0.4396532301	-0.3019294431	 0.076246
H	 1.3206373001	-1.5270744526	-0.9802051648	 0.074293
H	 3.4781438314	-0.6945598663	 0.2421988085	 0.099096
H	 2.8401556764	 0.9149971311	-0.1297211415	 0.092814
H	 2.5308974185	-0.7014794931	 2.4253745026	 0.097218
H	 1.8191776541	 0.9081513104	 2.2242499569	 0.090386
H	-0.5800897205	-1.4515074418	 2.7714004077	 0.115835
H	-0.736804086	-2.3558247571	 1.2613922731	 0.114162
H	 0.6699736258	-2.6118430303	 2.305287906	 0.111509
170.4077	197.2917	213.9596	250.1399	260.6098	318.96	431.2075	524.7936	617.7125	721.6789	737.6332	795.1685	880.2346	924.208	931.4698	951.438	984.5031	992.8744	1054.1848	1056.6917	1114.9295	1121.7496	1148.5166	1165.9028	1220.5085	1237.2504	1249.6823	1265.824	1307.8703	1344.2185	1413.3925	1415.2838	1463.6706	1476.6994	1485.7528	1497.0035	1502.2281	1506.9673	1512.684	3013.2325	3029.6935	3039.8754	3047.3638	3068.6239	3084.5097	3086.4933	3088.9942	3102.4173	3106.6481	3119.7874	3163.3373
CC1C2CCC12C	C[C@H]1[C@H]2CC[C@@]12C	
InChI=1S/C7H12/c1-5-6-3-4-7(5,6)2/h5-6H,3-4H2,1-2H3	InChI=1S/C7H12/c1-5-6-3-4-7(5,6)2/h5-6H,3-4H2,1-2H3/t5-,6+,7-/m0/s1
