12
gdb 954	5.84962	2.77344	1.88142	1.0777	58.38	-0.2342	-0.0209	0.2133	627.5405	0.093502	-323.448833	-323.443647	-323.442703	-323.47761	20.211	
O	 0.0992037466	 1.3388441762	 0.1012560366	-0.416838
C	 0.0694420029	-0.0095813052	 0.0600708536	 0.444325
N	 0.0914069423	-0.5822287742	-1.1380607591	-0.354376
C	 0.0620727898	-1.920000706	-1.184830132	 0.004203
C	 0.0105201235	-2.7260594932	-0.0570534586	-0.136761
C	-0.0117470287	-2.1011776873	 1.1925649912	-0.062036
C	 0.0178386793	-0.7191586845	 1.2656348897	-0.204987
H	 0.1329068274	 1.629436835	-0.8209296325	 0.297198
H	 0.0811543924	-2.3583692773	-2.1795825155	 0.110633
H	-0.011488126	-3.8048236341	-0.1512326643	 0.098766
H	-0.0519489832	-2.6910551485	 2.1025113488	 0.109241
H	 0.0025463638	-0.1842215009	 2.2069306421	 0.110632
218.584	418.4907	424.6757	507.7492	566.2035	570.8132	637.7779	767.4776	803.2514	863.4902	889.9827	980.1792	1000.6484	1003.961	1063.652	1108.4811	1167.0617	1202.9443	1322.3532	1338.8826	1370.2835	1493.0744	1514.7555	1626.349	1651.2256	3158.698	3182.3656	3208.9973	3214.8886	3765.3501
OC1=NC=CC=C1	Oc1ncccc1	
InChI=1S/C5H5NO/c7-5-3-1-2-4-6-5/h1-4H,(H,6,7)	InChI=1S/C5H5NO/c7-5-3-1-2-4-6-5/h1-4H,(H,6,7)
