16
gdb 2072	4.58293	2.48342	1.72112	3.8712	60.93	-0.2344	0.0337	0.2681	730.3506	0.140017	-325.831718	-325.825313	-325.824368	-325.86207	24.21	
O	 0.0107967278	-0.0852553475	 0.0882849857	-0.376932
C	-0.0168768733	 1.1307905636	 0.0362597251	 0.387404
C	-1.3286353055	 1.9117275899	 0.0423001987	-0.2927
C	-1.1950240275	 3.3838794349	 0.4480130483	-0.210755
C	-0.0313710581	 4.0282719074	-0.3091007756	-0.192383
C	 1.2740050228	 3.3131755888	 0.0359260703	-0.145676
N	 1.1307141356	 1.8679825256	-0.0928005485	-0.300466
H	-1.733027263	 1.8395219583	-0.9759645441	 0.128246
H	-2.0205662428	 1.3636855456	 0.6862553723	 0.127807
H	-2.1314499178	 3.9162011959	 0.2520486826	 0.101626
H	-1.0118659643	 3.4591549245	 1.5279397815	 0.104466
H	-0.2124626277	 3.962096518	-1.3891472972	 0.107564
H	 0.0673023	 5.089494154	-0.060196546	 0.102856
H	 2.080042058	 3.6457787653	-0.6278304218	 0.110379
H	 1.57447394	 3.580042778	 1.0615063841	 0.105734
H	 1.9690039458	 1.3050296375	-0.0607477754	 0.242829
102.0369	156.2545	309.8323	419.0565	440.8769	488.2308	536.6532	657.6463	668.0079	767.963	835.6236	872.1837	935.4788	944.9485	1005.5053	1066.3612	1107.3613	1122.5304	1177.9346	1198.5753	1275.9247	1293.1868	1321.3818	1355.7525	1377.6503	1383.1086	1400.9211	1461.078	1483.9481	1489.3495	1502.3331	1528.9224	1788.2075	2976.2774	3022.3478	3031.4958	3034.4222	3053.3366	3074.7034	3085.8879	3106.075	3601.0403
O=C1CCCCN1	O=C1CCCCN1	
InChI=1S/C5H9NO/c7-5-3-1-2-4-6-5/h1-4H2,(H,6,7)	InChI=1S/C5H9NO/c7-5-3-1-2-4-6-5/h1-4H2,(H,6,7)
