16
gdb 3047	9.66576	1.09427	1.0592	2.5077	62.68	-0.2437	-0.0229	0.2208	1084.5762	0.135361	-325.749687	-325.742048	-325.741104	-325.782527	26.24	
O	-0.1599847867	-0.0221090602	-0.2403774111	-0.234939
C	 0.0407478895	 1.1405253221	-0.0012261905	 0.155799
C	 1.3439164614	 1.8650932381	-0.2414818133	-0.266295
C	 1.1586421286	 3.0943686479	-1.1422790751	-0.149252
N	 2.3822367317	 3.8845598164	-1.1801457505	-0.059636
C	 3.351834288	 3.5242364336	-2.2114882388	-0.220229
C	 2.5427809282	 4.7681389151	-2.3300758342	-0.222115
H	-0.7645340871	 1.7807439062	 0.4322951083	 0.07098
H	 1.7242703681	 2.2146756307	 0.728115088	 0.132267
H	 2.0682084315	 1.1637814887	-0.6644177857	 0.122411
H	 0.8374957466	 2.7714763091	-2.1494988503	 0.093573
H	 0.3606902198	 3.7314717203	-0.7402781506	 0.109353
H	 4.3958425308	 3.5683690948	-1.9159705958	 0.121253
H	 3.101727197	 2.7046794758	-2.8838545724	 0.11368
H	 1.7546567568	 4.7774802676	-3.0814121014	 0.112107
H	 2.9835731659	 5.7383900339	-2.1207063464	 0.121042
55.4297	73.1635	114.6488	189.022	310.2914	379.2342	408.285	534.681	764.4946	785.7099	836.4932	869.7675	900.9565	994.3784	1026.8141	1040.6388	1091.5391	1113.1242	1118.6034	1133.7801	1173.3724	1182.676	1239.2734	1274.4488	1313.7063	1326.2923	1396.3961	1432.5007	1465.6483	1488.2733	1498.8629	1521.2589	1837.0199	2847.3569	2935.4236	3028.2296	3042.2418	3093.2295	3098.707	3107.7779	3179.3299	3193.4212
O=CCCN1CC1	O=CCCN1CC1	
InChI=1S/C5H9NO/c7-5-1-2-6-3-4-6/h5H,1-4H2	InChI=1S/C5H9NO/c7-5-1-2-6-3-4-6/h5H,1-4H2
