17
gdb 2709	16.49141	0.8297	0.80582	2.965	62.45	-0.256	-0.0267	0.2293	1386.6621	0.145075	-346.855643	-346.846741	-346.845797	-346.890211	29.062	
C	 0.0185845187	 1.5237396782	-0.0986855198	-0.383581
C	-0.0295435817	-0.0054646463	-0.0557341392	-0.184897
C	-1.4508524388	-0.5370144705	 0.0586388281	-0.030606
O	-1.4085647748	-1.9511861841	 0.0923568681	-0.248155
C	-2.6719078402	-2.5491856346	 0.1968973438	-0.144035
C	-2.4847989169	-4.0562491589	 0.2217838293	 0.138798
O	-3.3918984854	-4.8403045954	 0.3070175711	-0.238124
H	 1.0490035195	 1.8804789417	-0.180976007	 0.120814
H	-0.5381322375	 1.9177166103	-0.9560612414	 0.118254
H	-0.4131081019	 1.963308697	 0.8072178356	 0.118258
H	 0.4277417481	-0.4264899464	-0.9583581209	 0.109608
H	 0.551778572	-0.3811778042	 0.7939756801	 0.109618
H	-1.9355110105	-0.1507928675	 0.9719947827	 0.088717
H	-2.0606420228	-0.1967209227	-0.7961356012	 0.088708
H	-3.2034219081	-2.2439541807	 1.1150277579	 0.120171
H	-3.3282877915	-2.2887551835	-0.6516448268	 0.120151
H	-1.4203917583	-4.3720678726	 0.1531394897	 0.096302
47.575	62.4792	108.3852	112.8092	142.3034	236.7355	267.3387	349.6998	453.6742	573.5714	739.8538	766.1459	901.9086	910.0265	1006.9439	1050.1644	1066.396	1114.3781	1155.0334	1176.0542	1192.9657	1236.7296	1272.2853	1316.9309	1328.4558	1353.1298	1401.8004	1414.1921	1439.6054	1482.3248	1492.4347	1501.2224	1507.9423	1529.1746	1844.9966	2899.1199	2947.6548	2958.9611	2975.9459	2983.3757	3033.2453	3040.2995	3073.4529	3101.6102	3111.1985
CCCOCC=O	CCCOCC=O	
InChI=1S/C5H10O2/c1-2-4-7-5-3-6/h3H,2,4-5H2,1H3	InChI=1S/C5H10O2/c1-2-4-7-5-3-6/h3H,2,4-5H2,1H3
