15
gdb 3200	4.13485	3.4402	2.99423	1.7508	54.85	-0.2506	0.0837	0.3343	558.2522	0.128578	-345.663299	-345.65811	-345.657166	-345.692089	20.7	
C	-0.0186177885	 1.5753766265	 0.010157506	-0.220388
C	 1.5027842828	 1.921680538	-0.0228740422	-0.230909
C	 2.0978387531	 0.5004300457	-0.0235310548	 0.1932
O	 1.9808505697	-0.0480370614	 1.2894033989	-0.274968
C	 0.5987746752	-0.4311332186	 1.3919602048	-0.080012
C	 0.0451318682	 0.0319640811	 0.0306614642	 0.043734
O	 1.1830203296	-0.2407110143	-0.807179022	-0.249059
H	-0.5362088778	 1.9841804732	 0.8813308334	 0.104298
H	-0.5314518383	 1.9253901285	-0.8881044773	 0.109438
H	 1.7798895261	 2.4648898544	-0.9297607122	 0.106564
H	 1.8397272684	 2.4913442814	 0.8447719197	 0.112222
H	 3.1186019335	 0.374835731	-0.3830097038	 0.091418
H	 0.5260798567	-1.5168086412	 1.5243426708	 0.106029
H	 0.1253064688	 0.0702065471	 2.2433976646	 0.10063
H	-0.8313970273	-0.5009261013	-0.3341181302	 0.087803
175.031	345.041	413.0839	575.7938	647.1636	789.7197	811.1035	839.0758	847.8569	883.2015	920.2295	951.4395	972.2963	980.7921	1021.0696	1043.2096	1073.285	1100.5474	1158.9334	1191.7872	1231.405	1248.9773	1270.9858	1303.3881	1316.3466	1335.2577	1349.6071	1380.8387	1478.5983	1499.9908	1522.0997	3027.2568	3066.0916	3071.1474	3075.6685	3111.9543	3131.65	3135.359	3141.8733
C1CC2OCC1O2	C1C[C@H]2OC[C@@H]1O2	
InChI=1S/C5H8O2/c1-2-5-6-3-4(1)7-5/h4-5H,1-3H2	InChI=1S/C5H8O2/c1-2-5-6-3-4(1)7-5/h4-5H,1-3H2/t4-,5+/m1/s1
