17
gdb 3526	6.93292	2.25697	2.18758	0.1012	68.37	-0.2835	0.0974	0.3808	681.8445	0.149575	-272.509064	-272.503219	-272.502275	-272.538263	23.657	
C	-0.1551062712	 1.6051620723	-0.0227694389	-0.420067
C	-0.0315343525	 0.0890787539	 0.0069353787	 0.010211
C	 1.1808036539	-0.5955765489	-0.6659556876	-0.040689
C	 2.1396513314	-0.2947040126	 0.5416829948	-0.038504
C	 2.5838830407	-1.7666626559	 0.6503875375	-0.266009
C	 1.0899109346	-1.8406970781	 0.2822633954	-0.036192
C	 0.7296010674	-0.5965055119	 1.1653647563	-0.040697
H	 0.7963193293	 2.093561819	 0.2121183853	 0.112729
H	-0.4739911153	 1.9550556071	-1.0110649631	 0.112837
H	-0.8970307726	 1.9541974263	 0.7042519124	 0.112836
H	-0.9938829739	-0.3836772117	-0.2304065092	 0.058025
H	 1.4667786413	-0.6144439011	-1.7202199582	 0.062414
H	 2.7345137035	 0.6075688245	 0.6887036212	 0.068248
H	 3.2960869846	-2.1238823353	-0.1009461537	 0.088621
H	 2.8656130761	-2.1247693439	 1.6462441238	 0.088621
H	 0.4558288351	-2.7154265426	 0.1255925418	 0.0652
H	 0.4930773376	-0.6164529411	 2.2317926933	 0.062415
220.1525	223.1117	267.7285	425.8012	519.9148	724.238	730.6017	839.8199	841.0415	851.6651	858.9683	877.6057	914.0258	962.1654	1002.6169	1023.897	1029.5478	1041.5766	1093.9756	1103.1543	1132.0537	1148.4931	1152.4507	1158.8919	1187.9187	1191.3971	1244.6862	1249.461	1283.3786	1317.4397	1398.523	1414.0301	1495.9404	1499.7635	1511.003	3015.3194	3027.2979	3033.0883	3081.3798	3082.5579	3088.2299	3088.9565	3093.7549	3100.3557	3107.8179
CC1C2C3CC2C13	C[C@H]1[C@H]2[C@@H]3C[C@H]2[C@H]13	
InChI=1S/C7H10/c1-3-6-4-2-5(6)7(3)4/h3-7H,2H2,1H3	InChI=1S/C7H10/c1-3-6-4-2-5(6)7(3)4/h3-7H,2H2,1H3/t3-,4-,5+,6-,7+
