17
gdb 3324	6.01715	1.82011	1.64299	1.1774	63.61	-0.2509	0.0791	0.33	796.4095	0.149039	-309.679242	-309.67232	-309.671376	-309.710085	26.134	
O	-0.0613998876	 1.4262023354	-0.1885631814	-0.423144
C	 0.050417456	 0.0349793445	 0.0850398847	-0.093152
C	-1.3387341834	-0.5651586129	-0.0205152764	 0.040739
C	-2.0325872445	-0.6445404172	-1.4232708584	-0.24265
C	-2.2299058469	-2.1529070732	-1.2195649715	-0.034289
C	-0.9003071919	-2.8253956754	-1.0433104926	-0.274243
C	-1.4986420311	-2.0856015955	 0.1251677028	-0.075404
H	 0.8211402909	 1.8074745887	-0.1758650552	 0.285336
H	 0.7334447961	-0.4532798349	-0.6272281549	 0.081158
H	 0.4522418889	-0.1435372768	 1.0966921011	 0.081429
H	-1.9904366526	-0.0382868268	 0.6827502502	 0.081053
H	-2.9632219082	-0.0756285403	-1.4592765644	 0.103944
H	-1.4181065648	-0.3580606902	-2.2833638878	 0.095449
H	-3.1227040146	-2.7106136198	-1.4746757573	 0.082613
H	-0.9313621114	-3.9070341055	-0.9570792493	 0.108259
H	-0.0210737502	-2.4510061334	-1.5623613066	 0.102655
H	-1.7305050946	-2.5980209467	 1.0516766271	 0.080246
96.9535	158.7622	218.6276	269.3616	371.2602	432.6661	490.7037	671.1829	779.1842	801.2719	831.5995	883.7817	939.5913	957.6907	988.0051	1013.9638	1034.3859	1064.1339	1074.4597	1082.5809	1095.0251	1124.6922	1163.0385	1195.4053	1229.5288	1252.1574	1264.6392	1273.2504	1307.689	1356.7357	1375.2942	1459.894	1481.6843	1494.923	1519.5483	2959.0547	2992.274	3047.6114	3063.9941	3107.621	3113.7926	3171.3893	3182.9502	3198.8822	3829.1625
OCC1CC2CC12	OC[C@H]1C[C@H]2C[C@@H]12	
InChI=1S/C6H10O/c7-3-5-1-4-2-6(4)5/h4-7H,1-3H2	InChI=1S/C6H10O/c7-3-5-1-4-2-6(4)5/h4-7H,1-3H2/t4-,5+,6+/m0/s1
