15
gdb 4468	3.56682	1.79128	1.20908	1.5972	63.63	-0.1913	0.0569	0.2482	955.3185	0.119863	-396.025559	-396.017437	-396.016493	-396.05784	29.708	
C	 0.108953114	 1.475469002	 0.0789007029	-0.49054
C	 0.0800451912	-0.0133690343	-0.0154949326	 0.258115
C	-0.0617818459	-0.7880311612	-1.1354214239	 0.149489
N	-0.222370402	-0.546326183	-2.5158543894	-0.619098
N	-0.0227934184	-2.1106698084	-0.6719722609	-0.312269
C	 0.1366233218	-2.0409558009	 0.6669752791	 0.431084
O	 0.2099496338	-3.1673154073	 1.3997793445	-0.428316
N	 0.2042236164	-0.8163744141	 1.1147644901	-0.41982
H	 1.0511594814	 1.8296221322	 0.5123034757	 0.130031
H	-0.0022799762	 1.9289648686	-0.9104833979	 0.102165
H	-0.6980145698	 1.8505003223	 0.718561043	 0.130024
H	-1.0656268789	-0.0230069478	-2.7230818016	 0.244991
H	 0.5619367146	-0.0437487804	-2.9160822957	 0.244979
H	-0.0997188955	-2.9358841631	-1.2415757901	 0.26893
H	 0.3219623835	-2.8790821645	 2.314572037	 0.310235
102.2386	142.3295	195.7666	235.6598	256.0344	318.4857	365.3427	416.04	495.5462	526.7334	626.1516	656.612	663.4624	731.7626	752.8265	822.1149	991.9956	1063.6442	1068.2626	1164.4775	1184.0407	1205.7458	1252.8287	1299.9191	1400.3243	1430.314	1477.8368	1493.1718	1568.4547	1620.0589	1641.0516	1669.2277	3027.6235	3079.3673	3107.2861	3508.9874	3574.6667	3676.2954	3801.1091
CC1=C(N)NC(O)=N1	Cc1c(N)[nH]c(O)n1	
InChI=1S/C4H7N3O/c1-2-3(5)7-4(8)6-2/h5H2,1H3,(H2,6,7,8)	InChI=1S/C4H7N3O/c1-2-3(5)7-4(8)6-2/h5H2,1H3,(H2,6,7,8)
