21
gdb 2942	5.40797	1.63869	1.36054	0.0445	73.97	-0.3018	0.0824	0.3842	965.2228	0.196559	-275.011437	-275.003477	-275.002533	-275.044853	29.179	
C	-0.0214796974	 1.5979456022	 0.0975417445	-0.384513
C	 0.000694772	 0.0660462966	 0.0674104181	-0.186644
C	-1.3803806779	-0.5794469715	-0.0722971869	 0.069032
C	-2.1136099582	-0.3067967808	-1.3988545979	-0.197526
C	-3.2501223258	-1.3480508702	-1.423890919	-0.203436
C	-2.7094864447	-2.5746746922	-0.6305467807	-0.205918
C	-1.3601256262	-2.1198985808	-0.0201063284	-0.210041
H	 0.9853748095	 2.0061901557	 0.2309925225	 0.109082
H	-0.4259772761	 2.013230712	-0.8311309819	 0.116934
H	-0.6412235176	 1.9678955345	 0.9223390334	 0.1114
H	 0.6368935852	-0.2760172316	-0.7609999206	 0.089256
H	 0.4754505853	-0.3044654994	 0.9855381169	 0.089883
H	-2.0182267593	-0.2145942159	 0.748025442	 0.061785
H	-2.4811796765	 0.7190305465	-1.4929805266	 0.090939
H	-1.4190885673	-0.4793742089	-2.2327911297	 0.089175
H	-4.1371753436	-0.940417795	-0.9272728303	 0.096089
H	-3.5542577211	-1.6070811563	-2.4419045122	 0.092544
H	-3.4157584784	-2.8681764337	 0.1518899307	 0.096069
H	-2.5793213858	-3.4500460066	-1.2731595979	 0.095585
H	-0.5255866861	-2.4835879391	-0.6335411219	 0.091028
H	-1.1991380201	-2.5052434054	 0.9913784459	 0.089277
18.8733	102.1116	147.9015	207.2351	250.9732	382.8977	421.1879	539.9606	625.8636	754.4161	783.3269	819.116	865.96	893.9977	940.7524	948.583	962.3611	982.0916	1029.0921	1050.4209	1056.6668	1112.8795	1150.6621	1204.9841	1215.1029	1233.6167	1261.122	1289.6752	1298.6984	1320.1851	1326.2077	1338.5965	1352.4911	1373.7866	1395.2494	1412.115	1483.7549	1486.8004	1494.708	1496.2284	1500.7581	1507.7481	1518.7871	2979.1293	3006.0888	3013.4451	3024.4759	3030.0045	3039.5433	3039.995	3053.7941	3070.0943	3081.5875	3084.6502	3095.2635	3100.4038	3102.9641
CCC1CCCC1	CCC1CCCC1	
InChI=1S/C7H14/c1-2-7-5-3-4-6-7/h7H,2-6H2,1H3	InChI=1S/C7H14/c1-2-7-5-3-4-6-7/h7H,2-6H2,1H3
