16
gdb 2418	4.26091	3.47244	2.53479	1.6698	64.89	-0.2257	0.1011	0.3268	605.8342	0.137479	-288.547509	-288.541648	-288.540704	-288.576664	23.471	
C	-0.0376315587	 1.4462892317	 0.0113601368	-0.516467
C	 0.0806081941	-0.0478660334	-0.0316423606	 0.374876
C	 0.5667850959	-0.9462168933	-1.1785416525	-0.296572
C	 0.0546828584	-1.8948810397	-0.0956762788	 0.002253
C	 0.5851873621	-1.029875382	 1.0828930751	-0.097939
C	-0.8104499988	-1.0418337124	 1.6916638408	-0.191889
N	-1.1595260325	-0.9766134948	 0.2077518053	-0.186294
H	 0.9471588987	 1.9131547443	-0.0980569315	 0.122989
H	-0.6772714442	 1.8024980213	-0.8025551988	 0.132206
H	-0.4702531741	 1.7871605799	 0.9576632318	 0.124591
H	-0.0182630686	-0.9054874006	-2.1021031093	 0.103962
H	 1.6417758807	-0.9539602592	-1.378566912	 0.094436
H	-0.0741853104	-2.9783673461	-0.115012696	 0.07944
H	 1.5751704892	-1.0621517054	 1.5522700889	 0.05999
H	-1.1525394715	-1.9632047339	 2.1748847936	 0.097387
H	-1.1428729502	-0.1694442263	 2.2636658472	 0.097031
196.9512	271.2164	290.979	422.9274	452.1596	625.1569	681.9595	761.9876	822.5731	849.2739	869.4878	899.6746	922.6526	959.0476	1010.5422	1019.9108	1029.0998	1079.3745	1100.7159	1140.5181	1160.4515	1170.826	1183.2908	1217.2847	1244.7603	1276.0694	1296.3694	1331.4657	1409.6007	1482.4454	1486.2713	1493.5678	1520.0394	3029.033	3031.6817	3041.9473	3050.5307	3090.9357	3101.0503	3102.8275	3105.1711	3114.4753
CC12CC3C1CN23	C[C@@]12C[C@H]3[C@@H]1CN23	
InChI=1S/C6H9N/c1-6-2-5-4(6)3-7(5)6/h4-5H,2-3H2,1H3	InChI=1S/C6H9N/c1-6-2-5-4(6)3-7(5)6/h4-5H,2-3H2,1H3/t4-,5-,6+/m0/s1
