15
gdb 3187	5.07771	2.06172	1.84398	0.3845	56.86	-0.2646	0.0768	0.3414	729.8689	0.123674	-345.608658	-345.601692	-345.600748	-345.639601	25.461	
C	 0.035064836	 1.5519869012	-0.000171813	-0.48608
C	-0.0020430475	 0.043792793	-0.054379543	 0.412204
C	 1.0916891806	-0.7083914104	-0.6924916267	-0.22547
O	 0.9858481229	-0.6421006343	 0.7312152952	-0.275422
C	-1.3473347923	-0.6250877937	 0.001230782	 0.032396
C	-2.5459752912	-0.0021247556	 0.5774636647	-0.188531
O	-2.3714655476	-0.088249218	-0.8394608295	-0.235501
H	 1.0435705979	 1.9198862687	-0.2003430169	 0.126676
H	-0.6504779496	 1.9697459796	-0.7429221939	 0.143375
H	-0.264761629	 1.9124642684	 0.9890086457	 0.128992
H	 0.8974706387	-1.6861754851	-1.132054932	 0.115139
H	 1.9293689629	-0.1637494383	-1.1256451243	 0.115772
H	-1.2880175309	-1.7141289916	 0.0088661421	 0.097212
H	-3.326997237	-0.6378766087	 0.9916260287	 0.120874
H	-2.4970864639	 1.002047475	 0.9925342208	 0.118364
78.6084	201.0758	233.8614	259.5648	358.5697	373.1547	447.8196	530.2936	703.1099	821.0647	861.9691	874.6271	932.6803	957.0787	981.8162	1052.4788	1094.696	1115.0635	1136.6689	1156.1217	1165.0252	1173.5969	1272.5933	1308.8644	1360.1029	1409.8426	1450.2619	1484.7572	1506.8525	1527.2596	1534.331	3045.6921	3080.768	3092.668	3107.1436	3113.5432	3133.8315	3168.0892	3181.2794
CC1(CO1)C1CO1	C[C@]1(CO1)[C@H]1CO1	
InChI=1S/C5H8O2/c1-5(3-7-5)4-2-6-4/h4H,2-3H2,1H3	InChI=1S/C5H8O2/c1-5(3-7-5)4-2-6-4/h4H,2-3H2,1H3/t4-,5+/m1/s1
