17
gdb 2688	10.77854	0.86876	0.82045	0.7785	70.9	-0.2413	0.043	0.2843	1417.4841	0.145323	-309.686648	-309.677328	-309.676384	-309.723916	30.209	
C	-0.0195165212	 1.5170053944	 0.0039720063	-0.386008
C	 0.0144112367	-0.0014635494	-0.0191331068	-0.015322
O	 0.6811751842	-0.4149624639	-1.1951380931	-0.240494
C	 0.7619972295	-1.8235258476	-1.3037365101	-0.204312
C	 1.4557418661	-2.1966929193	-2.528877645	 0.002689
C	 2.026358475	-2.5265090318	-3.535433537	 0.133863
C	 2.718056522	-2.9190614496	-4.7542704945	-0.498587
H	 0.9960955772	 1.9223088792	-0.0042811175	 0.128695
H	-0.5484904666	 1.9010093331	-0.8726896162	 0.128697
H	-0.5301836188	 1.8737251603	 0.903510513	 0.113536
H	 0.5355422178	-0.3916176133	 0.8723637836	 0.084438
H	-1.0096707073	-0.4129232254	 0.0037704636	 0.084441
H	 1.2907903594	-2.2442402372	-0.4299547876	 0.11011
H	-0.2501189806	-2.2658532858	-1.2960559154	 0.110096
H	 2.7486945216	-4.0095819816	-4.8556207595	 0.148779
H	 2.2182479833	-2.5182308003	-5.6428830355	 0.14983
H	 3.7519077819	-2.5568204019	-4.7610194683	 0.149547
3.4073	69.5343	81.5366	107.4253	206.5522	229.4965	247.0579	338.1545	378.1558	408.1369	523.1315	788.6059	822.2442	908.4816	1029.7716	1030.7549	1052.8378	1053.8805	1130.0772	1150.4712	1183.0637	1188.5223	1253.7872	1295.2348	1378.6684	1404.7494	1414.5456	1448.928	1476.3385	1479.6328	1482.9824	1497.3272	1502.1136	1531.6506	2380.7431	2937.6767	2951.3685	2954.6329	2971.9226	3027.9436	3045.6043	3089.1684	3089.5301	3119.6553	3123.8251
CCOCC#CC	CCOCC#CC	
InChI=1S/C6H10O/c1-3-5-6-7-4-2/h4,6H2,1-2H3	InChI=1S/C6H10O/c1-3-5-6-7-4-2/h4,6H2,1-2H3
