16
gdb 1680	4.12467	1.9553	1.42274	5.0747	57.06	-0.246	0.02	0.2661	855.5611	0.136425	-362.946041	-362.938092	-362.937147	-362.978421	28.021	
C	-0.2383797999	 1.4543693207	 0.0428081204	-0.326206
N	 0.2076541199	 0.0613226095	 0.0838686876	-0.311888
H	 0.854970957	-0.0621080405	 0.8575750415	 0.231354
H	-0.6766274282	-1.6010568665	 0.0213969153	 0.297567
C	 0.838468765	-0.4330134765	-1.1511852792	-0.105106
C	 2.3232688273	-0.1007199385	-1.3133244979	-0.394082
C	 0.5898235832	-1.9543139461	-1.2755989051	 0.423053
O	-0.4037729741	-2.3944460882	-0.4942027507	-0.368271
O	 1.2070147899	-2.6647892165	-2.0234080475	-0.342251
H	 0.5604303527	 2.1722402319	-0.1967941659	 0.11549
H	-1.026411455	 1.559287389	-0.7092656662	 0.136976
H	-0.6627265106	 1.7258477382	 1.013154732	 0.131205
H	 0.2806030572	 0.0127570092	-1.9859371654	 0.120025
H	 2.7064074426	-0.5525634745	-2.2298774588	 0.156112
H	 2.4834930334	 0.9804482079	-1.355653026	 0.115566
H	 2.9038834996	-0.5050472891	-0.4764814641	 0.120457
62.0279	127.8902	196.8813	218.9658	255.0697	270.5049	387.9634	417.3065	501.3623	587.5543	725.9081	769.7486	835.9148	886.4492	933.4547	1031.7351	1081.6261	1088.379	1147.1313	1164.3953	1212.1977	1227.3017	1313.6702	1349.9686	1402.4008	1429.3219	1462.2235	1480.0645	1489.5406	1494.6772	1502.1382	1518.2529	1867.8763	2991.9675	3026.7024	3039.4546	3077.3237	3106.2308	3116.7819	3142.8757	3438.8538	3503.3845
C[NH2+]C(C)C([O-])=O	CN[C@@H](C)C(=O)O	
InChI=1S/C4H9NO2/c1-3(5-2)4(6)7/h3,5H,1-2H3,(H,6,7)	InChI=1S/C4H9NO2/c1-3(5-2)4(6)7/h3,5H,1-2H3,(H,6,7)/t3-/m0/s1
