13
gdb 4326	3.92885	1.87377	1.26869	3.1476	63.85	-0.2144	-0.0261	0.1883	872.4547	0.098092	-398.676638	-398.670326	-398.669382	-398.706964	24.743	
O	-0.0813667094	 1.3551136053	 0.010591625	-0.427679
C	 0.0152623654	 0.0052721229	 0.0027406786	 0.454959
C	 1.2094129081	-0.6646666289	-0.0075124111	-0.429162
C	 1.2753923449	-2.1056037256	-0.0157655459	 0.443308
O	 2.2769831463	-2.8027801737	-0.0248488711	-0.408426
N	-0.0021365849	-2.717698345	-0.0118485499	-0.364791
C	-1.1858542882	-2.052957252	-0.0016698676	 0.054435
C	-1.2279963754	-0.6960332762	 0.0058480021	-0.245699
H	 0.8044884898	 1.7359996298	 0.0077490067	 0.30557
H	 2.1579579166	-0.1388967751	-0.0098812487	 0.099984
H	 0.0236480346	-3.7272956219	-0.0173881157	 0.261474
H	-2.0791949003	-2.6658201389	 0.0000328091	 0.13841
H	-2.1620946874	-0.1538260405	 0.0139765785	 0.117618
176.5668	213.5849	358.9425	422.5491	470.95	489.6524	520.0999	557.6023	636.9618	709.9582	738.5253	767.8961	779.045	843.179	931.0287	935.5578	1003.2027	1109.7494	1194.8473	1207.0601	1249.1594	1262.2833	1373.2851	1459.912	1522.343	1596.573	1677.7989	1783.2128	3191.3114	3207.3289	3244.2953	3616.7539	3806.2855
OC1=CC(=O)NC=C1	Oc1cc(=O)[nH]cc1	
InChI=1S/C5H5NO2/c7-4-1-2-6-5(8)3-4/h1-3H,(H2,6,7,8)	InChI=1S/C5H5NO2/c7-4-1-2-6-5(8)3-4/h1-3H,(H2,6,7,8)
