14
gdb 3625	5.45662	3.76663	3.52129	1.7756	58.8	-0.221	0.0865	0.3075	489.8385	0.116314	-287.344	-287.339568	-287.338624	-287.371773	18.869	
C	-0.05570011	 1.5874577165	 0.1327218213	-0.240798
C	 1.4733749197	 1.496829095	-0.0120849828	-0.003996
C	 2.0268900895	 0.603333313	 1.107463646	-0.091228
C	 0.9376367301	-0.4906966306	 1.1077171855	-0.091219
C	 2.106890321	-0.5657960658	 0.1733789142	-0.022613
N	 1.3193656512	 0.2179937273	-0.868550573	-0.183428
C	 0.0414428937	 0.0587360808	-0.0116890874	-0.003999
H	-0.4790216048	 2.0092200248	 1.0474000407	 0.098633
H	-0.5119128978	 2.0414928175	-0.7512296038	 0.112837
H	 2.0829310211	 2.3110912908	-0.4038719035	 0.076183
H	 2.619513653	 0.8442494603	 1.9799738166	 0.089332
H	 0.6995225005	-1.0841799506	 1.9804117643	 0.089332
H	 2.8606709001	-1.3163281893	-0.027003993	 0.094783
H	-0.7703072473	-0.5544077798	-0.403088845	 0.07618
401.6745	526.7369	732.0372	777.7604	777.8697	798.3569	810.2029	820.4186	865.0494	906.2923	913.5469	938.2663	960.9126	1005.6573	1016.6818	1020.0441	1038.5166	1056.828	1094.698	1098.444	1159.4756	1187.6056	1222.5587	1233.1767	1243.2303	1296.1771	1304.7259	1364.263	1474.9285	3060.6706	3113.5961	3116.1017	3123.6605	3188.1456	3196.8746	3210.8319
C1C2C3C4C3N2C14	C1[C@H]2[C@H]3[C@@H]4[C@H]3N2[C@H]14	
InChI=1S/C6H7N/c1-2-4-5-3(1)7(2)6(4)5/h2-6H,1H2	InChI=1S/C6H7N/c1-2-4-5-3(1)7(2)6(4)5/h2-6H,1H2/t2-,3+,4-,5+,6-
