19
gdb 1614	3.57995	2.03672	1.38685	0.6217	73.1	-0.2582	0.0567	0.3149	918.1293	0.168953	-273.762938	-273.754018	-273.753074	-273.79562	32.932	
C	 0.0320628983	 1.5501185614	 0.0007691161	-0.401898
C	 0.0193869454	 0.0155431376	 0.0333438376	 0.051377
C	 0.7709649614	-0.4946439181	 1.2698621686	-0.395399
C	-1.4292299801	-0.5548232222	-0.0197285401	-0.13423
C	-2.2419566	-0.051112389	-1.2317686955	-0.400704
C	-1.4216547928	-2.0186396977	-0.0137808545	 0.325814
C	-1.4223250348	-3.2210533922	-0.0448214812	-0.471668
H	 1.0569056628	 1.9223128731	 0.0979276109	 0.112757
H	-0.3764385827	 1.9533975943	-0.9292248363	 0.116458
H	-0.5485913747	 1.9658006871	 0.8336014531	 0.11154
H	 0.5393598683	-0.3537265709	-0.8611837447	 0.08073
H	 0.2941847106	-0.1361541339	 2.1906139098	 0.108851
H	 0.7903123698	-1.5864516773	 1.3047231314	 0.130313
H	 1.8041510119	-0.1329363529	 1.2711617141	 0.10823
H	-1.9424889479	-0.2185229141	 0.8940949296	 0.099461
H	-3.2214221109	-0.5350169867	-1.2603650083	 0.125522
H	-2.3977115952	 1.0289516196	-1.1821959328	 0.117714
H	-1.724438839	-0.2856007779	-2.167499775	 0.123667
H	-1.4255424006	-4.2827249103	-0.0578310027	 0.191466
69.7429	156.1245	202.7785	213.2227	224.8114	258.3935	304.6461	369.1246	391.8719	423.7465	521.6802	559.6861	622.553	630.8977	776.1227	865.7316	933.0544	934.2981	965.2332	987.6806	1053.6114	1107.1072	1144.8412	1187.1493	1191.9699	1289.9694	1326.5312	1350.6292	1365.7082	1399.6722	1408.3074	1421.7767	1487.9022	1489.0921	1496.6363	1500.6368	1506.0603	1516.3552	2229.5724	2988.0438	3014.9397	3026.3434	3031.9721	3044.6102	3089.3083	3096.2516	3112.0434	3117.0903	3123.1868	3128.4761	3504.6797
CC(C)C(C)C#C	CC(C)[C@@H](C)C#C	
InChI=1S/C7H12/c1-5-7(4)6(2)3/h1,6-7H,2-4H3	InChI=1S/C7H12/c1-5-7(4)6(2)3/h1,6-7H,2-4H3/t7-/m0/s1
