11
gdb 69	8.31096	4.07963	2.92918	2.8354	39.16	-0.255	-0.0279	0.2271	432.1489	0.088443	-268.287661	-268.281505	-268.280561	-268.316982	20.344	
C	-0.0548311805	 1.4603284258	-0.1706864684	-0.402765
C	 0.071057139	-0.0352448534	 0.1122584065	 0.046781
O	 0.5820448614	-0.3331665587	 1.4017625561	-0.433064
C	-1.2763927857	-0.7438302732	 0.0305118522	 0.160801
O	-2.1185577515	-0.4964317481	-0.7916341176	-0.243754
H	 0.9315807179	 1.9309139781	-0.2335320422	 0.109651
H	-0.577139947	 1.6129093948	-1.1183556169	 0.145345
H	-0.624443149	 1.94776119	 0.6257367034	 0.13251
H	 0.6968752061	-0.5007162032	-0.6715947124	 0.097709
H	 1.4560331563	 0.0606665906	 1.478585843	 0.290844
H	-1.4072321671	-1.5338862727	 0.8021118064	 0.095942
83.7164	223.8052	246.4641	260.6492	376.8173	443.3426	577.1906	828.5595	914.3782	950.2974	1073.6815	1138.2316	1143.8321	1228.2816	1338.6316	1383.8231	1397.7904	1418.1459	1488.8471	1499.9026	1841.5246	2903.9501	2936.4574	3041.5444	3113.8083	3134.29	3833.8493
CC(O)C=O	C[C@@H](O)C=O	
InChI=1S/C3H6O2/c1-3(5)2-4/h2-3,5H,1H3	InChI=1S/C3H6O2/c1-3(5)2-4/h2-3,5H,1H3/t3-/m1/s1
