17
gdb 2544	2.7865	2.22668	1.34132	1.9328	61.68	-0.2436	-0.0301	0.2135	919.2043	0.145213	-346.855622	-346.846859	-346.845914	-346.889275	29.611	
C	-0.2505119706	 1.4740386585	-0.1074732491	-0.388922
C	-0.0019017118	-0.0356252565	-0.1372286731	-0.193876
C	 0.9277696376	-0.4593563636	-1.2838827799	 0.048207
O	 2.181877674	 0.1626419977	-1.0931714611	-0.240481
C	 3.0045128163	 0.1453422076	-2.242117431	-0.242675
C	 1.0766574917	-1.9788204705	-1.2705167584	 0.133573
O	 0.2958686703	-2.7450192942	-1.7706650568	-0.245049
H	 0.6914457028	 2.0181953399	-0.0075363092	 0.136224
H	-0.7411771072	 1.810562525	-1.0272670475	 0.115288
H	-0.8953446298	 1.743219289	 0.7342114281	 0.116298
H	 0.4459802353	-0.3614613644	 0.8096827456	 0.109407
H	-0.9431870986	-0.5831952423	-0.2538489553	 0.119787
H	 0.4798258947	-0.1642046904	-2.2465470341	 0.086481
H	 3.2363184977	-0.8778160011	-2.574769103	 0.113108
H	 2.5349417484	 0.6800638223	-3.0813547652	 0.114007
H	 3.93813365	 0.6467682158	-1.9776918278	 0.133829
H	 1.9756307592	-2.3262452628	-0.7083912222	 0.084794
59.7819	103.9012	115.0023	185.4437	207.9622	237.5563	275.315	304.8091	433.9608	482.3158	553.8679	768.8009	868.0111	945.9937	981.0764	1023.7532	1073.6208	1123.885	1136.4972	1165.2244	1184.8454	1231.5666	1278.3653	1306.2638	1345.5103	1375.7968	1400.8381	1405.9856	1477.9063	1482.7674	1489.9453	1494.6498	1507.9812	1509.0163	1836.6559	2861.0308	2976.8061	2984.5999	3028.8929	3035.043	3040.2503	3081.4614	3106.488	3121.5779	3129.9824
CCC(OC)C=O	CC[C@@H](OC)C=O	
InChI=1S/C5H10O2/c1-3-5(4-6)7-2/h4-5H,3H2,1-2H3	InChI=1S/C5H10O2/c1-3-5(4-6)7-2/h4-5H,3H2,1-2H3/t5-/m1/s1
