12
gdb 1442	9.01403	1.31732	1.17643	6.6869	51.75	-0.2738	-0.0366	0.2372	924.4802	0.087505	-360.526364	-360.518564	-360.51762	-360.559368	25.548	
O	 0.1017166294	 1.3917617904	 0.1086231523	-0.389428
C	-0.0237904502	 0.0119825187	-0.0782588943	-0.170094
C	-1.4800704499	-0.3954434123	 0.1095725456	 0.385951
O	-2.3798723422	 0.3840191315	 0.2403230172	-0.242073
C	-1.6897102139	-1.9261110439	 0.1336297882	-0.46431
C	-3.0705172363	-2.3245587826	-0.1024001603	 0.290268
N	-4.1572294168	-2.6611442174	-0.2979902896	-0.290907
H	 1.0132174893	 1.6407093681	-0.0704007061	 0.299598
H	 0.2690897333	-0.3150704101	-1.0926644008	 0.120572
H	 0.5896060329	-0.5792324283	 0.6254737441	 0.111629
H	-1.033050965	-2.4133468363	-0.5965295026	 0.166058
H	-1.3714463906	-2.2887253976	 1.1200101063	 0.182737
34.7196	90.5023	139.2788	216.0908	256.7645	365.1953	371.9191	435.6181	459.7055	688.7858	800.8817	871.5778	939.2158	1028.4687	1055.4672	1153.6169	1206.8455	1235.649	1268.2502	1327.0177	1438.0425	1445.7738	1493.2857	1857.4423	2376.8121	2942.136	2962.7869	3035.7215	3075.3634	3837.1878
OCC(=O)CC#N	OCC(=O)CC#N	
InChI=1S/C4H5NO2/c5-2-1-4(7)3-6/h6H,1,3H2	InChI=1S/C4H5NO2/c5-2-1-4(7)3-6/h6H,1,3H2
