15
gdb 4855	6.41883	1.28806	1.08015	0.2621	64.06	-0.1633	0.0732	0.2365	1047.5976	0.118648	-399.816262	-399.808201	-399.807257	-399.848578	29.317	
C	-0.0779992935	 0.8323992234	-0.5954404488	-0.243073
O	 0.1139732986	 0.9722722342	 0.7999607279	-0.261491
C	 0.7998548163	-0.042924925	 1.3751248514	 0.408201
C	 1.3651402903	-1.2010238802	 0.9150908215	-0.28715
C	 1.9581279056	-1.8568352957	 2.0569894863	-0.298951
C	 1.7185850088	-1.0605461267	 3.1410236614	 0.373309
O	 2.0226486451	-1.1434178467	 4.4645412633	-0.439394
N	 1.0135267287	 0.0461431787	 2.7333288488	-0.378214
H	-0.6488547662	-0.0766140553	-0.8260080995	 0.123999
H	-0.6375594046	 1.7097169972	-0.9230495567	 0.132162
H	 0.8835498364	 0.7897986731	-1.1236202529	 0.12399
H	 1.369568392	-1.5574060602	-0.1013024584	 0.09172
H	 2.4888164716	-2.7961274534	 2.0566179448	 0.082966
H	 2.5113958883	-1.959340544	 4.6064163837	 0.305038
H	 0.7038839528	 0.7969257105	 3.3251591072	 0.266888
74.633	189.2139	201.2355	212.283	237.3401	343.972	360.8789	363.405	510.0855	616.9505	650.831	672.3923	698.8504	713.5551	735.1926	987.5563	1017.2657	1055.1351	1089.6453	1162.2806	1184.3987	1208.2272	1251.8252	1276.9383	1296.2984	1457.9757	1479.7488	1479.813	1509.3533	1522.2732	1615.5562	1650.0148	3003.7017	3060.0965	3137.6391	3244.9571	3268.0676	3689.6716	3851.2792
COC1=CC=C(O)N1	COc1ccc(O)[nH]1	
InChI=1S/C5H7NO2/c1-8-5-3-2-4(7)6-5/h2-3,6-7H,1H3	InChI=1S/C5H7NO2/c1-8-5-3-2-4(7)6-5/h2-3,6-7H,1H3
