13
gdb 3748	7.26739	2.20846	1.71487	2.2355	56.3	-0.2089	0.0214	0.2303	703.3451	0.104548	-336.845442	-336.838983	-336.838039	-336.875644	23.247	
C	 0.026032747	 1.3961679077	 0.0858262759	-0.317172
N	 0.0044550694	-0.0438380072	-0.0016475129	 0.061571
C	-0.1632783963	-0.8380497807	-1.0700666959	 0.009018
N	-0.1157825245	-2.1133318162	-0.7253412203	-0.328843
C	 0.0934302808	-2.0401009393	 0.6211859241	 0.405486
N	 0.2696010333	-3.1717210511	 1.3919875828	-0.579835
N	 0.1698518941	-0.8102707916	 1.1182057249	-0.340635
H	 0.9903112132	 1.7393806165	 0.4709923744	 0.151495
H	-0.1328571284	 1.8114639976	-0.9112630202	 0.139706
H	-0.7648659029	 1.7478560993	 0.7542519712	 0.149847
H	-0.315334591	-0.4528849397	-2.0677245046	 0.136309
H	-0.1848424103	-3.9854011287	 1.0046548178	 0.257397
H	 0.0653484756	-3.0336154166	 2.3707963129	 0.255655
116.6675	176.1053	280.519	316.0336	343.9208	462.6518	612.0317	629.6043	661.2277	773.4459	798.1464	848.8571	1020.9106	1040.0024	1071.7481	1134.1562	1154.2818	1235.2795	1326.0155	1386.5232	1454.3672	1470.6395	1472.8737	1520.2109	1535.0316	1595.2281	1649.4435	3046.5422	3112.0389	3141.4928	3250.0974	3574.3224	3680.6601
CN1C=NC(N)=N1	Cn1cnc(N)n1	
InChI=1S/C3H6N4/c1-7-2-5-3(4)6-7/h2H,1H3,(H2,4,6)	InChI=1S/C3H6N4/c1-7-2-5-3(4)6-7/h2H,1H3,(H2,4,6)
