14
gdb 1263	7.67229	1.09743	0.97167	3.9461	64.39	-0.2494	-0.015	0.2344	1161.1068	0.111834	-324.588418	-324.579753	-324.578809	-324.623838	28.356	
C	 0.0110024783	 1.5468463682	 0.0098498812	-0.366288
C	-0.0208929309	 0.0074684389	 0.0054723038	-0.323095
C	-1.3726405691	-0.5369334067	 0.0106985947	 0.055322
C	-2.5021856296	-0.9594881127	 0.0149929935	 0.031807
C	-3.888272146	-1.4025441251	 0.0247040442	 0.263575
N	-4.0325200522	-2.7607988802	-0.0141116344	-0.520304
O	-4.8298270828	-0.6333486653	 0.0544935231	-0.335894
H	 1.0451006901	 1.9030698127	 0.0057521245	 0.118238
H	-0.4974880715	 1.9477634823	-0.8705566826	 0.13686
H	-0.4887839215	 1.9426132033	 0.8975429873	 0.136795
H	 0.5139812626	-0.3738439595	-0.8739029842	 0.137563
H	 0.5224622582	-0.378828203	 0.8774728616	 0.137363
H	-3.2389236273	-3.3749915582	 0.0341199945	 0.263878
H	-4.9623541484	-3.1420723247	 0.0462036027	 0.26418
9.3436	84.6534	98.7775	133.0131	197.513	236.2928	387.7638	427.8333	493.7696	567.3717	607.5833	691.1977	772.5594	782.8107	933.3547	1067.4502	1088.8101	1102.0499	1102.8444	1283.9275	1341.7367	1353.5463	1410.9912	1467.4476	1494.5981	1504.4361	1606.7035	1772.592	2347.4016	3021.8016	3048.4379	3049.87	3123.0286	3130.1082	3602.5556	3745.3642
CCC#CC(N)=O	CCC#CC(=O)N	
InChI=1S/C5H7NO/c1-2-3-4-5(6)7/h2H2,1H3,(H2,6,7)	InChI=1S/C5H7NO/c1-2-3-4-5(6)7/h2H2,1H3,(H2,6,7)
