10
gdb 750	9.81413	3.92888	2.85647	2.7916	43.9	-0.2907	-0.0245	0.2662	441.7219	0.075306	-297.516418	-297.511409	-297.510464	-297.545036	16.511	
C	 0.0000151962	 1.4453373939	-0.0000259911	-0.317843
N	-0.0141760734	-0.0040398005	-0.0218158466	 0.165105
N	 0.2111149166	-0.7199659817	-1.1161708196	-0.251847
C	 0.0933149116	-1.9551689937	-0.6438883514	 0.081908
N	-0.1905036275	-1.9864194538	 0.676919947	-0.205683
N	-0.2559527079	-0.7349711323	 1.0598786528	-0.121882
H	 0.9822092497	 1.8092846564	-0.3080135229	 0.163822
H	-0.7607561916	 1.8320102566	-0.681069973	 0.163815
H	-0.2147563717	 1.756309523	 1.021419537	 0.174456
H	 0.2122032779	-2.835524138	-1.2542001322	 0.14815
91.028	232.0631	370.4792	696.6663	717.7839	727.4804	903.0325	1026.4079	1037.5502	1048.9402	1152.54	1162.8254	1246.611	1304.9953	1319.6684	1417.1225	1450.0548	1477.2344	1483.0312	1513.3394	3067.9228	3142.0189	3179.2012	3287.4444
CN1N=CN=N1	Cn1ncnn1	
InChI=1S/C2H4N4/c1-6-4-2-3-5-6/h2H,1H3	InChI=1S/C2H4N4/c1-6-4-2-3-5-6/h2H,1H3
