12
gdb 2732	4.81246	2.25586	1.67221	2.3399	57.31	-0.2693	0.0152	0.2844	713.9527	0.089623	-323.333263	-323.326811	-323.325867	-323.363743	23.328	
N	 0.0050617272	 1.2350782969	-0.2345204237	-0.53167
C	 0.0039379471	 0.007965473	-0.0009089276	 0.443581
O	 1.0262218711	-0.8623218838	 0.309074323	-0.24704
C	 0.1063511709	-1.9845382206	 0.4534159233	-0.088717
C	-1.0818880917	-1.0728919114	 0.0373826508	-0.309394
C	-2.1796016405	-0.9083021715	 0.9647255262	 0.335289
C	-3.084973097	-0.7889797333	 1.7449334665	-0.448546
H	 0.9442616766	 1.6310015642	-0.1710173195	 0.234393
H	 0.3577367614	-2.793663832	-0.2350799428	 0.128075
H	 0.0759089335	-2.3403225472	 1.4845841277	 0.136373
H	-1.4498056626	-1.2960404649	-0.9688650002	 0.14122
H	-3.8868280561	-0.6682370495	 2.4308984463	 0.206437
114.1695	136.4924	223.5115	377.8848	447.2213	513.7361	634.1231	641.9688	651.9479	724.0634	822.3233	864.0982	931.376	971.9486	1005.142	1062.4492	1096.6486	1160.0459	1194.3462	1220.3702	1322.4942	1362.5407	1514.2836	1832.4957	2246.381	3067.003	3074.6985	3140.8767	3482.3609	3503.1475
N=C1OCC1C#C	[NH][C]1OC[C@H]1C#C	
InChI=1S/C5H5NO/c1-2-4-3-7-5(4)6/h1,4,6H,3H2	InChI=1S/C5H5NO/c1-2-4-3-7-5(4)6/h1,4,6H,3H2/t4-/m1/s1
