13
gdb 4405	3.71692	2.10365	1.34465	4.8451	69.03	-0.2039	-0.0493	0.1546	844.1692	0.097013	-394.804084	-394.797368	-394.796424	-394.834823	25.707	
N	 0.1004962935	 1.3477268949	 0.1779208657	-0.562151
C	-0.047408134	-0.0088940918	 0.0593733395	 0.414374
C	-1.2119336799	-0.7107216223	 0.0207254179	-0.163374
N	-1.2107156283	-2.0832109606	-0.0233187189	-0.212201
C	-0.0796417532	-2.7054936565	-0.0356950194	-0.045235
C	 1.2145035293	-2.0397822243	-0.0094314905	 0.350544
N	 2.3336313864	-2.633805784	-0.0286589446	-0.526408
O	 1.1471702182	-0.6385773452	 0.0366282812	-0.251964
H	 0.9794804736	 1.7160461285	-0.1546307626	 0.267954
H	-0.7040559787	 1.9030337915	-0.0676688903	 0.270957
H	-2.1694340878	-0.2061098232	 0.0320195271	 0.102525
H	-0.059075416	-3.7901791556	-0.0708504414	 0.132704
H	 3.1087233371	-1.9712082116	-0.0016073836	 0.222276
128.5538	188.4866	307.833	350.0959	436.4175	469.0192	512.9192	525.038	577.1859	677.2857	732.7869	735.8261	791.0863	842.363	899.2225	909.9243	1002.7291	1058.8051	1104.7706	1164.8592	1258.5769	1326.142	1382.9258	1444.1322	1563.9298	1630.055	1668.0586	1739.9272	3182.963	3204.8177	3493.0229	3580.0865	3693.8075
NC1=CN=CC(=N)O1	NC1=C[N]C=C([NH])O1	
InChI=1S/C4H5N3O/c5-3-1-7-2-4(6)8-3/h1-2,5H,6H2	InChI=1S/C4H5N3O/c5-3-1-7-2-4(6)8-3/h1-2,5H,6H2
