19
gdb 3100	3.76399	1.89874	1.60646	1.2562	67.5	-0.2439	0.0618	0.3056	879.543	0.170293	-310.906869	-310.898251	-310.897306	-310.93973	31.08	
C	-0.2728827432	 1.4633286003	-0.0879055063	-0.372571
C	 0.1278801316	-0.005202516	 0.1048747831	-0.198907
C	 0.7698128173	-0.5932341218	-1.1360359242	-0.043487
C	 0.9202994908	-2.0916000433	-1.3555838288	-0.056496
C	 0.4570906036	-3.1176440074	-0.3426075358	-0.402636
C	-0.0651141204	-1.3090481181	-2.1809866115	 0.076803
O	-1.4206864946	-1.5587692128	-1.9286820974	-0.416613
H	 0.5950934062	 2.0817722978	-0.3417930565	 0.114818
H	-0.9998886916	 1.5742536732	-0.9007731416	 0.101806
H	-0.723010465	 1.8765685408	 0.8202051019	 0.111459
H	 0.8228612004	-0.0828518445	 0.9506997369	 0.096424
H	-0.756228943	-0.5888479326	 0.3767377314	 0.107685
H	 1.5824246972	 0.0134494005	-1.5322639663	 0.07387
H	 1.8246439685	-2.3803037088	-1.8856385916	 0.080794
H	-0.5346553378	-2.8832198004	 0.0466336654	 0.134482
H	 0.3997759872	-4.1093185672	-0.8039845728	 0.115335
H	 1.1537316624	-3.1833968373	 0.5002885386	 0.110642
H	 0.1691904027	-1.1404626752	-3.2322177485	 0.078123
H	-1.9014234822	-0.7321195973	-2.040690386	 0.288467
65.5621	125.1608	159.8945	183.3305	231.7027	279.345	302.3401	308.5203	485.2525	558.3262	587.2117	744.8496	771.826	811.2998	864.1513	956.6661	969.4658	1000.9693	1048.3967	1060.9997	1104.9235	1126.4987	1159.5868	1183.181	1190.0964	1251.6015	1290.1544	1298.9538	1338.3099	1374.3096	1402.4489	1413.0854	1418.0212	1458.356	1484.9016	1495.2395	1497.1159	1504.037	1505.3111	3024.7989	3027.8842	3036.125	3076.7115	3089.4854	3090.0197	3095.3841	3102.4252	3115.8749	3129.0258	3144.3527	3806.4116
CCC1C(C)C1O	CC[C@H]1[C@@H](C)[C@H]1O	
InChI=1S/C6H12O/c1-3-5-4(2)6(5)7/h4-7H,3H2,1-2H3	InChI=1S/C6H12O/c1-3-5-4(2)6(5)7/h4-7H,3H2,1-2H3/t4-,5+,6-/m1/s1
