13
gdb 1210	6.54396	1.36072	1.26328	3.9932	55.9	-0.2684	0.0049	0.2732	925.5742	0.100838	-340.682075	-340.674173	-340.673229	-340.715661	25.984	
C	-0.0946263048	 1.4770294975	-0.0921116029	-0.489144
C	-0.0195302405	-0.0326112564	-0.224207762	 0.418981
O	 0.8382895102	-0.6019802477	-0.8691480791	-0.354832
N	-1.0124074123	-0.7179364541	 0.4374538869	-0.31429
C	-1.1369457057	-2.154438985	 0.3069948302	-0.278659
C	-2.4044787659	-2.5550561857	-0.3174670712	 0.252786
N	-3.416622847	-2.8587706752	-0.7841669128	-0.297976
H	 0.9175113919	 1.8817672555	-0.1202826952	 0.160334
H	-0.6449643057	 1.8824115117	-0.9476460735	 0.160724
H	-0.5955125951	 1.8011598723	 0.8239914353	 0.124517
H	-1.740476812	-0.2109207999	 0.9131377288	 0.260022
H	-0.2961234852	-2.4781125169	-0.3149096978	 0.19899
H	-1.0522974378	-2.656506086	 1.2782243233	 0.158548
39.894	53.1312	89.6466	239.2448	276.2227	373.2134	401.5285	437.7706	574.8508	607.8113	647.5548	878.8115	927.9345	989.8034	1048.8942	1053.2808	1123.7512	1248.0343	1273.8432	1371.6552	1396.4157	1465.4073	1469.0476	1486.6224	1526.7137	1792.2188	2363.6516	3037.4924	3049.0041	3096.9148	3116.6763	3154.8232	3650.8343
CC(=O)NCC#N	CC(=O)NCC#N	
InChI=1S/C4H6N2O/c1-4(7)6-3-2-5/h3H2,1H3,(H,6,7)	InChI=1S/C4H6N2O/c1-4(7)6-3-2-5/h3H2,1H3,(H,6,7)
