14
gdb 3315	6.80392	2.03241	1.8169	4.1059	59.14	-0.2355	0.0233	0.2588	701.8646	0.114358	-324.557693	-324.551601	-324.550657	-324.587834	22.436	
O	 0.0070700698	 0.0719989228	-0.2767783536	-0.324003
C	 0.0593530886	 1.2627393487	-0.0523293796	 0.130473
N	 1.1917906438	 1.9383174426	 0.2724676344	-0.040363
C	 2.5927355965	 1.5179804741	 0.0750719821	-0.180246
C	 2.9695654069	 3.0013460866	-0.0815862145	-0.079562
C	 2.1504243952	 3.6479967909	-1.1714258649	-0.282001
C	 1.5069068538	 3.3562334117	 0.1565519933	-0.020235
H	-0.8295849922	 1.9277490599	-0.0475521325	 0.068673
H	 3.0088930474	 1.0463075394	 0.9698493591	 0.127187
H	 2.7468813491	 0.8640278048	-0.7886833274	 0.130275
H	 3.8494740563	 3.4639860753	 0.3414790995	 0.108043
H	 2.3799179958	 4.6931457092	-1.3543376334	 0.123926
H	 1.8547605204	 3.0840426271	-2.0521397533	 0.123598
H	 1.0528878487	 4.0949488668	 0.8053629609	 0.114235
81.4602	207.453	283.6374	365.5102	459.3769	553.1263	736.049	775.1103	816.9515	859.8522	929.8113	960.4608	984.1845	1032.9005	1037.4678	1057.8907	1081.2173	1108.275	1155.2754	1174.0962	1200.6277	1264.1744	1306.5618	1347.6225	1392.3622	1436.1524	1478.6595	1509.1146	1794.5278	2917.2948	3051.3737	3101.4159	3116.9553	3188.9084	3207.8328	3223.6448
O=CN1CC2CC12	O=CN1C[C@H]2C[C@@H]12	
InChI=1S/C5H7NO/c7-3-6-2-4-1-5(4)6/h3-5H,1-2H2	InChI=1S/C5H7NO/c7-3-6-2-4-1-5(4)6/h3-5H,1-2H2/t4-,5-/m1/s1
