14
gdb 377	6.54157	2.38245	1.86601	1.41	55.84	-0.2538	0.0395	0.2933	675.6208	0.116766	-270.38418	-270.376713	-270.375769	-270.415376	25.831	
C	 0.0350318585	 1.3992027775	 0.0452229012	-0.230862
O	-0.0806129521	-0.0033162778	-0.039489203	-0.240929
C	 0.6246283846	-0.5796832492	-1.1335544912	-0.031669
C	 2.1290594851	-0.7138542543	-0.8460033427	-0.393114
C	 0.0246151721	-1.8844858396	-1.4158817388	 0.323022
C	-0.436587123	-2.9651383156	-1.6647894355	-0.444937
H	 1.0599475792	 1.7309793495	 0.2669110496	 0.107185
H	-0.2935122924	 1.8909555834	-0.8839907891	 0.106078
H	-0.6156179988	 1.7207710071	 0.8618237165	 0.132131
H	 0.4900213975	 0.0595637138	-2.0232579005	 0.092842
H	 2.6371392248	-1.1770302047	-1.6961307142	 0.128294
H	 2.5783612424	 0.2674681072	-0.6710990781	 0.117393
H	 2.2826840143	-1.3372790113	 0.0380896869	 0.13676
H	-0.8572622121	-3.915760166	-1.881896041	 0.197807
67.1946	163.7923	196.7446	212.805	249.5399	359.6386	416.5897	532.6254	552.2933	621.6631	668.5519	818.3161	904.5966	1034.452	1090.1916	1114.2443	1153.1002	1180.3183	1218.2582	1344.0521	1370.908	1399.047	1475.5584	1481.7121	1491.0366	1499.1716	1510.8393	2243.7568	2951.961	2976.8638	3025.3086	3049.5752	3116.5525	3123.41	3135.0208	3504.8373
COC(C)C#C	CO[C@@H](C)C#C	
InChI=1S/C5H8O/c1-4-5(2)6-3/h1,5H,2-3H3	InChI=1S/C5H8O/c1-4-5(2)6-3/h1,5H,2-3H3/t5-/m0/s1
