12
gdb 3766	7.72177	2.23031	1.75239	2.5088	52.99	-0.2308	-0.0127	0.2182	680.5865	0.092268	-352.866322	-352.859988	-352.859044	-352.896443	22.39	
C	 0.006807421	 1.3886961465	 0.0586315112	-0.314536
N	-0.0080994147	-0.0575638376	 0.0497369697	 0.158464
N	-0.0654580085	-0.7650614413	-1.0605097917	-0.126323
N	-0.062573229	-2.0276875605	-0.6999807057	-0.276839
C	-0.0042864514	-2.0227663864	 0.6566570579	 0.455717
N	-0.0427318877	-3.1717098022	 1.4095578769	-0.575107
N	 0.0347600849	-0.7933473131	 1.1667762889	-0.336496
H	 0.9200979991	 1.7484503372	 0.538350899	 0.156565
H	-0.02920849	 1.719336747	-0.9786141309	 0.169797
H	-0.8600931747	 1.7666232094	 0.6056972315	 0.158244
H	 0.2639318271	-3.9905620218	 0.9056626533	 0.266504
H	 0.3717138039	-3.0858362774	 2.3252641699	 0.264011
114.4485	181.2483	282.7336	319.4477	356.8777	463.1483	592.209	667.0833	680.6171	781.6259	815.9131	1031.0355	1051.7608	1100.0003	1119.5591	1151.4485	1260.2697	1332.0446	1420.8986	1448.3504	1471.7137	1474.6136	1514.6302	1582.8697	1654.3387	3060.4833	3129.9746	3175.0484	3580.3705	3686.2503
CN1N=NC(N)=N1	Cn1nnc(N)n1	
InChI=1S/C2H5N5/c1-7-5-2(3)4-6-7/h1H3,(H2,3,5)	InChI=1S/C2H5N5/c1-7-5-2(3)4-6-7/h1H3,(H2,3,5)
