15
gdb 3327	6.16407	1.89593	1.70887	0.861	56.45	-0.2522	0.0766	0.3287	745.5657	0.124842	-345.602645	-345.59596	-345.595016	-345.633338	24.599	
O	-0.0264531197	 1.3872821153	-0.215755939	-0.424557
C	 0.0295239239	-0.0013253212	 0.0854121887	-0.090025
C	-1.3831538081	-0.5439957672	 0.0075277317	 0.003213
C	-2.0821920122	-0.5954731372	-1.4016860461	-0.259026
C	-2.2140877233	-2.1133578539	-1.2253335067	 0.036178
O	-0.8903773647	-2.6375070687	-1.0543303494	-0.245498
C	-1.5486044474	-2.0731218354	 0.0869190572	-0.001482
H	 0.87450708	 1.7185325644	-0.2706385502	 0.286814
H	 0.6615246113	-0.5456588112	-0.629917874	 0.103312
H	 0.4387388666	-0.1745296613	 1.0949604398	 0.081238
H	-2.0210465522	-0.0332463112	 0.7348505086	 0.08471
H	-3.0386500367	-0.0688692879	-1.412893778	 0.107895
H	-1.4799056105	-0.2771101637	-2.2553429148	 0.114257
H	-2.9640745041	-2.7924895535	-1.6138294549	 0.103212
H	-1.6529777829	-2.7076726873	 0.959923197	 0.09976
99.462	162.4392	226.0505	264.5264	385.8185	448.5611	557.6411	727.3245	811.706	841.8688	865.5443	884.0358	938.6141	968.8616	999.7512	1038.089	1075.0532	1077.2632	1110.9053	1166.0289	1198.4097	1236.3885	1239.4482	1259.515	1261.4895	1287.776	1357.0634	1388.0261	1460.3773	1475.4562	1525.1689	2961.4233	3022.8209	3070.5728	3075.9143	3130.5068	3175.6692	3192.4928	3831.0894
OCC1CC2OC12	OC[C@H]1C[C@H]2O[C@@H]12	
InChI=1S/C5H8O2/c6-2-3-1-4-5(3)7-4/h3-6H,1-2H2	InChI=1S/C5H8O2/c6-2-3-1-4-5(3)7-4/h3-6H,1-2H2/t3-,4-,5+/m1/s1
